% Model:              Untitled.mph
% Version:            COMSOL 6.3.0.335
% Date:               Apr 23 2025, 12:08
% Dimension:          3
% Nodes:              1220
% Expressions:        3
% Description:        , , 
% Length unit:        m
% X                       Y                        Z                        x+u (m)                  y+v (m)                  z+w (m)
-0.5                      -0.19804351781487872     0.055796016995343756     -0.28658931037446556     -0.20898250163932947     0.19556752243333062
-0.5                      -0.16666666666666669     0                        -0.5                     -0.16666666666666666     0
-0.5                      -0.25                    0                        -0.5                     -0.25                    0
-0.5                      -0.25                    0.08333333333333336      -0.16899467435656035     -0.1848500026251132      0.332481537677865
-0.5                      0.12334026554063306      0.058654779297131254     -0.6510264433984951      0.04713365498463879      -0.015884737141554903
-0.5                      0.16666666666666663      0                        -0.5                     0.16666666666666663      0
-0.5                      0.08333333333333331      0                        -0.5                     0.08333333333333331      0
-0.5                      -0.08333333333333331     0                        -0.5                     -0.08333333333333331     0
-0.5                      -0.11956155883306634     0.07440367369011547      -0.33419097034872636     -0.2112597524139099      0.18328270471693445
-0.5                      -0.18975229969110305     0.12557696847349875      -0.17630109108191874     -0.19882601800976607     0.41633990471033794
-0.5                      -0.033687816529225784    0.06661959115573879      -0.4550834593450939      -0.1586601169511764      0.0886974032138481
-0.5                      0                        0                        -0.5                     0                        0
-0.5                      -0.25                    0.1666666666666667       -0.0179354112079137      -0.15511295184370344     0.6310959796915573
-0.5                      0.19193879173387263      0.052290372929467255     -0.7039121801565826      0.18229009317963019      -0.0638203862185369
-0.5                      0.25                     0                        -0.5                     0.25                     0
-0.5                      0.25                     0.08333333333333336      -0.8104053789283071      0.3136504655468182       -0.1601091927798357
-0.49999999999999994      0.17452574373538438      0.12441268879082246      -0.7894696309836434      0.15252148239585764      -0.1359269065719342
-0.5                      0.25                     0.1666666666666667       -0.9806986618347334      0.34603311705407797      -0.30110682420660156
-0.5                      0.04507389949456296      0.06573682950521431      -0.5610630313671009      -0.07316475697726287     0.03385599220437807
-0.5                      0.08533935595416114      0.1270691817354711       -0.6486804131960532      -0.01665920194936031     0.003877236066699513
-0.5                      -0.05757098090238943     0.12767843802140566      -0.3949980883868094      -0.17044273348023609     0.21131180911015476
-0.5                      0.00886882303327903      0.13286063698239103      -0.5157685214566375      -0.11238819185874309     0.11956989566343941
-0.49999999999999994      -0.11612917918410198     0.16533049237414554      -0.272782599914621       -0.16094983486178685     0.3878710748081231
-0.5                      -0.18111084114483497     0.20553737138791117      -0.12315430467120092     -0.10721960150890696     0.6312430633788071
-0.5                      -0.25                    0.25000000000000006      0.053465128503484505     -0.003089404517097688    0.9423110117379739
-0.5                      0.11680420063876108      0.18686714592167664      -0.735913094026835       0.10375044319659028      -0.06074144997149716
-0.5                      0.25                     0.25000000000000006      -1.052279109479338       0.49734402210057865      -0.4412324228538162
-0.5                      0.17789897447325081      0.21249443370350707      -0.8720018598709046      0.2618357505636788       -0.2174440419464001
-0.5                      0.05311696389661735      0.19888539860225318      -0.60970110511786        0.025626183800312705     0.08034623041684581
-0.5                      -0.037132723743444895    0.2067129228287521       -0.4207768078451445      -0.05497597859421839     0.2930102496404136
-0.5                      -0.11127175725402641     0.24994004180098717      -0.2530084276058476      6.879391864681589E-4     0.5617528641172344
-0.49999999999999994      -0.17961075371347637     0.2885418249120336       -0.09058461350958841     0.09466147021142345      0.8649370846936121
-0.5                      0.1102783860556873       0.251106837603558        -0.743167978058453       0.2251091816916697       -0.058626977028897465
-0.5                      0.17762583355436273      0.29092707634925374      -0.9040304673208047      0.45779923367854375      -0.2826013232960567
-0.5                      0.25                     0.3333333333333334       -1.0846048926826983      0.7559726917452331       -0.5868772195688158
-0.5                      -0.25                    0.3333333333333334       0.08519090578091593      0.25652741636463355      1.2542718059529732
-0.5                      -0.10769619256333965     0.33858063056825527      -0.2470249405170839      0.28421837375996045      0.7381519659187036
-0.5                      -0.038173893224196544    0.3032766143970448       -0.41144081707861785     0.19988449979002995      0.43076161216161646
-0.49999999999999994      0.033156032894851195     0.2733623225359332       -0.5746157295972595      0.17684517337696         0.17309380839447586
-0.5                      0.10085002673908876      0.3242481882795334       -0.7337292848874019      0.43617411496764064      -0.03468874402456096
-0.5                      0.03306901429721976      0.35951355199657076      -0.5777037582868955      0.4807664060479638       0.2303395927238969
-0.5                      -0.03850104312508469     0.3937632932563002       -0.40803941276082595     0.5586711028556252       0.5574209620759204
-0.5                      -0.1762503252154592      0.37480348042454614      -0.08337096077169692     0.4139097547293859       1.0980823873651353
-0.5                      0.1775966678044385       0.3750000000000002       -0.918403898107586       0.7693330440497442       -0.35393899274254975
-0.5                      0.25                     0.41666666666666674      -1.0935214407019016      1.1115865267420484       -0.7295011253870233
-0.5                      -0.25                    0.41666666666666674      0.0941778046600652       0.6120679260956504       1.5637966734105069
-0.5                      -0.17623525668995887     0.46102562594159147      -0.08276671736076707     0.8319903457308805       1.340372894328194
-0.5                      -0.25                    0.5000000000000001       0.08827855843458754      1.0562529860832692       1.8659720618948612
-0.5000000000000001       -0.10635892927348542     0.42673924548738873      -0.24720395248752847     0.6741685713654194       0.9165108911485308
-0.5                      0.1775966678044385       0.4583333333333335       -0.9193066210700694      1.1723700148425262       -0.4219837043614931
-0.5                      -0.25                    0.5833333333333335       0.07276409036625453      1.582072035683115        2.160065489761848
-0.5                      -0.17636566596051276     0.5439320731052355       -0.09008075423067896     1.320413846493999        1.5702434282821975
-0.5                      -0.1064463876617158      0.5095459818790911       -0.24976409541787634     1.1289159504204562       1.0874734670583042
-0.5                      0.10516188651616018      0.4109719857567985       -0.7485622580812858      0.8076359070014284       -0.056016004918890416
-0.5                      -0.036138415057592854    0.47746264128504734      -0.4140580019674754      0.9879914526944228       0.6619372902276693
-0.49999999999999994      0.03443661712071928      0.44372536354846515      -0.5811624381962924      0.8753852464041406       0.28046532801969576
-0.5                      0.10518557709687718      0.4918801722394196       -0.7469965427781723      1.2357203784669355       -0.06031224067517982
-0.5                      0.25                     0.5000000000000001       -1.0867577048268442      1.5563978129376361       -0.8653119079186254
-0.5                      -0.03590024690339028     0.5606624230777318       -0.4163263441037806      1.4972891643733826       0.7727140438427612
-0.5                      0.17759666780443845      0.5416666666666669       -0.911623215283983       1.661144110397432        -0.4869216776793151
-0.5                      0.25                     0.5833333333333335       -1.071165368087757       2.0821806969564367       -0.992596050527851
-0.5                      -0.17691967740957942     0.6272028396633393       -0.10233546916873004     1.8894527478542427       1.7986810598922334
-0.5                      -0.25                    0.6666666666666667       0.05080943473546029      2.183526604737645        2.4440926837255255
-0.5                      -0.10657898057660001     0.592911214175743        -0.2564468250891048      1.668993480908555        1.257756614527871
-0.5                      0.03356963608812162      0.5264868128436133       -0.5778381423680221      1.347560699536441        0.3398971803380631
-0.49999999999999994      0.03347922260428255      0.6092354406188324       -0.575038047139079       1.89976920674325         0.3969398161740343
-0.5                      0.10510116989496258      0.5751548016104506       -0.7408527204391201      1.7584608909706325       -0.06177767428882164
-0.5                      -0.03587436774862901     0.6437195643449041       -0.41936776915540985     2.08302079324827         0.8836370065135403
-0.5                      -0.10657399127271536     0.6763469192971825       -0.2659941966189692      2.2850875066946474       1.423898616584306
-0.5                      0.1775966678044385       0.6250000000000002       -0.8983600918033917      2.2286472721738075       -0.546685940450037
-0.5                      0.25                     0.6666666666666667       -1.0493769787429204      2.6831811521247215       -1.1100104711952314
-0.5                      0.1775966678044385       0.7083333333333335       -0.8811755422782791      2.8691798025581083       -0.600104363045054
-0.5                      0.25                     0.7500000000000001       -1.0233043154228971      3.354410561034468        -1.216881799659392
-0.49999999999999994      -0.176522629917824       0.7108375426951806       -0.1201785767055582      2.534403401475714        2.0158320346637537
-0.5                      -0.25                    0.7500000000000001       0.025003872844133967     2.854327859813059        2.717548726017645
-0.49999999999999994      -0.10650517817119302     0.759638448350318        -0.2771085651068343      2.9703116075692964       1.585282320375841
-0.5                      -0.17556057307810233     0.795017423606519        -0.14184558739464911     3.252169127973446        2.2217550633654017
-0.5                      -0.25                    0.8333333333333333       -0.003915987586776637    3.590236709658503        2.979634100132074
-0.5                      0.03360510635468289      0.6933482500642238       -0.5722953874287783      2.5367530731906105       0.4542785555016782
-0.5                      0.1051020098898832       0.6592420305289421       -0.7315856348262956      2.3639140244433503       -0.06062056670901783
-0.5                      0.10506390042619276      0.7417978963471611       -0.7208585329567673      3.0287201547415026       -0.05546829852609403
-0.5000000000000001       0.17759666780443856      0.7916666666666666       -0.8616112270539668      3.5771930856464134       -0.646847020153502
-0.5                      0.25                     0.8333333333333333       -0.994347727090191       4.090340809211458        -1.3123596688322683
-0.5                      -0.03587272869632462     0.7270482715220531       -0.4228590076041527      2.7429438477741592       0.9939726184244319
-0.49999999999999994      0.03370456728581511      0.7759471561819535       -0.5686631735475314      3.2305890246555546       0.5116212527954733
-0.5                      0.10504300017883711      0.8252280829025168       -0.7084714367611863      3.765953705353237        -0.04666055331207852
-0.5                      0.17759666780443845      0.8750000000000001       -0.8400302000472246      4.348075843149626        -0.6849886548273062
-0.5                      0.25                     0.9166666666666669       -0.9629613920177632      4.886559611410561        -1.3961408100541364
-0.5                      -0.035863381759697055    0.8103434773683151       -0.42696697824378854     3.4688956378257214       1.102841742069909
-0.5                      0.03375192374282965      0.8593888569174015       -0.5647133141822006      3.994889975282129        0.5714369674025533
-0.5                      -0.17654107012335182     0.8771673903407544       -0.1607546905800099      4.014028830117266        2.43123687559785
-0.5                      -0.25                    0.9166666666666669       -0.03501028228475084     4.386253089971739        3.2300497578729606
-0.5                      -0.10570151776941485     0.8432430773355437       -0.29122641820127826     3.723167600654794        1.7369081843223342
-0.5                      -0.25                    1.0000000000000002       -0.06726375915166627     5.237572660495055        3.468720815134833
-0.5                      -0.17551077596694112     0.9626471540834421       -0.18560474332483967     4.8665869308809775       2.622351368876471
-0.5                      0.25                     1.0000000000000002       -0.9309080138133847      5.737518933092247        -1.4679732848900515
-0.5                      0.1775966678044385       1.041666666666667        -0.7940606418743203      6.058096815488866        -0.7372585692269383
-0.5                      0.25                     1.0833333333333335       -0.8975518597750379      6.639589145605563        -1.5275529981481257
-0.5                      0.1775966678044385       1.1250000000000002       -0.7699242418481208      6.988550689395496        -0.7509192415147639
-0.5                      0.25                     1.166666666666667        -0.8635954514985832      7.58794770528695         -1.5753111320846764
-0.5                      0.17759666780443853      1.2083333333333335       -0.7455558607744416      7.963238092412062        -0.7564607836255598
-0.5                      -0.25                    1.0833333333333335       -0.10065376110928499     6.1397229080927005       3.6951973635922095
-0.5                      -0.1764475664303377      1.0461976884687025       -0.20717226044549153     5.752761880997432        2.819661957109687
-0.5                      0.10500371948525253      0.9087376267892161       -0.6953996720452834      4.565363121501733        -0.03276086290954883
-0.5                      0.1775966678044385       0.9583333333333335       -0.8173393678882617      5.176514141469949        -0.7158171463885034
-0.5                      0.10476906910099176      0.9923692931416438       -0.6814628382438147      5.421445727711841        -0.011920811694110633
-0.5                      -0.035882005616415996    0.8942604359289308       -0.43116330913564266     4.262885338221203        1.2111598973124416
-0.5                      -0.10614388782123707     0.9261756546598438       -0.3034111962458188      4.528579561034583        1.8929374842172215
-0.5                      -0.03569346682177778     0.9755113363839463       -0.4359806706024207      5.0866032919065285       1.312523986127622
-0.5                      0.034331816068642385     0.943154710018888        -0.561569624655411       4.822405072717522        0.6279430776230228
-0.49999999999999994      0.033290332486715035     1.0246943219569107       -0.5551668035873755      5.6781657540638575       0.6996576913628378
-0.5                      -0.10409249298457061     1.0103656437446995       -0.3209236100744705      5.403486191313816        2.022391466857211
-0.5                      -0.03527401864946626     1.0578119931475463       -0.4413377315793074      5.971913547305738        1.4109917249962685
-0.5                      -0.10399037214721053     1.0917605431514563       -0.3348865537235853      6.297194384220262        2.1599120491534
-0.5                      0.10100542412815589      1.0761864213913235       -0.6609877422997047      6.3268598750210225       0.04953637205540096
-0.5                      0.034349910523257365     1.1091119745145124       -0.5522914531660117      6.616905344098478        0.7544712452312684
-0.5                      0.25                     1.2500000000000002       -0.82844978205197        8.57930165596065         -1.610541695563452
-0.5                      -0.17687475084082208     1.1286712586018797       -0.23042656420850352     6.67565781896134         3.0015650086813115
-0.5                      -0.25                    1.166666666666667        -0.13475011945925994     7.088348282335493        3.909377583879269
-0.5                      0.10139842737882665      1.1594855289954675       -0.6479376084423621      7.279154036598597        0.07572847448778752
-0.5                      0.03451529297804351      1.1919700174997163       -0.5477300258355481      7.582088190595161        0.8183829104063011
-0.5                      0.17759666780443845      1.291666666666667        -0.7211138506502898      8.97709131362719         -0.7527364777808767
-0.5                      0.25                     1.3333333333333337       -0.7943245333105647      9.607004162739168        -1.63332751254206
-0.5                      0.1775966678044385       1.3750000000000002       -0.6965100271285397      10.02709533295142        -0.7404062233566034
-0.5                      0.25                     1.416666666666667        -0.7602549558013244      10.668072442528441       -1.6439118960616212
-0.5                      0.10175128743897877      1.242609524816578        -0.6344044123191547      8.271674641978278        0.10689113390589156
-0.5                      0.03418738094612178      1.2754521205311213       -0.542733652338865       8.594880584918343        0.8894062321166124
-0.5                      -0.033329717652215846    1.140313430919057        -0.44900017513879664     6.907737172454978        1.492040515114585
-0.5                      -0.10401297060707398     1.1738203617150995       -0.34849477979794163     7.242879217421333        2.2950961017026077
-0.5                      0.1018337016438744       1.3257616696508356       -0.6205718784482888      9.30186719970966         0.14552550766343764
-0.49999999999999994      0.10152289646808071      1.4088083430533334       -0.6062894465013818      10.36374941155674        0.19358999722873316
-0.5                      0.17759666780443853      1.4583333333333335       -0.6726645698002754      11.107650379457324       -0.719558831411486
-0.5                      0.25                     1.5000000000000002       -0.7265930455347512      11.757772654432346       -1.642093308872788
-0.5                      0.1775966678044385       1.5416666666666667       -0.6487889267848016      12.214625263562548       -0.6900414363309791
-0.5                      0.25                     1.5833333333333335       -0.693793610187437       12.87208261210749        -1.6279266874030294
-0.5                      -0.25                    1.2500000000000002       -0.16896783187744016     8.078858773581233        4.111426604868765
-0.5                      -0.1770671822037969      1.2108335152302832       -0.25372580605173023     7.638051102094168        3.172534373734965
-0.5                      -0.17584057962398705     1.2941542264374533       -0.2796473217239291      8.654039635834353        3.3207071257131706
-0.5                      -0.10404281323878531     1.2573514413655018       -0.3628536694469516      8.246496909221072        2.4277885290585797
-0.5                      -0.03335096011705255     1.223825934777368        -0.45346355119728093     7.896229952282021        1.5918275798661983
-0.5                      -0.25                    1.3333333333333337       -0.20350566166573605     9.106889597147985        4.300564212355973
-0.5                      -0.1774943921837701      1.3783348431881064       -0.30213300013096717     9.71469297106074         3.495957085384042
-0.5                      -0.25                    1.416666666666667        -0.23749996027914103     10.168150024582724       4.477883313787405
-0.5                      0.03302509733811587      1.3587183312561955       -0.53640952484323        9.640246677371033        0.972270228459324
-0.5                      -0.03553862590928791     1.3086809173031462       -0.4553710454304181      8.938900298641089        1.716778099401548
-0.5                      -0.10484911232251876     1.3427719473539657       -0.37661227833244076     9.310886011810359        2.567735862798053
-0.5                      -0.03441704411745067     1.3925793048628048       -0.4614814242680087      10.00809257558395        1.8015038134025765
-0.5                      0.03424383649351226      1.441866242115406        -0.533135694404244       10.718363239345722       1.0287527726084817
-0.5                      0.10258989401388985      1.4931232441781939       -0.5934455177354385      11.47287457271962        0.23031581251633537
-0.49999999999999994      -0.10653577361820914     1.4246247963608476       -0.38875970137309257     10.36225173170874        2.7081988948961406
-0.5                      -0.03553008718265013     1.474490933408319        -0.46496116425573814     11.078864594052591       1.9087219489579486
-0.49999999999999994      -0.10583792766310034     1.50861691640331         -0.40376292362736743     11.471369886688459       2.818547940880801
-0.49999999999999994      0.03447856902327823      1.525353432429497        -0.5287793871652288      11.827397106378713       1.0985030068229606
-0.5                      0.10257958372703634      1.5745546169715336       -0.5802037780023034      12.56679962049583        0.28341736822579855
-0.5                      -0.035438967063984084    1.558162458494731        -0.4697040176439849      12.199684993356533       2.001850733870303
-0.5                      -0.1792984598379072      1.7076451696884192       -0.39201652325304875     14.123929452086301       4.04428819251179
-0.5                      -0.25                    1.6666666666666667       -0.3347195340733546      13.505569988771901       4.9354160524445225
-0.5                      -0.25                    1.7500000000000002       -0.36459539437129934     14.654498930336542       5.06275319541005
-0.5                      -0.19103219457896936     1.9461008851713737       -0.4470270784339676      17.446846312632797       4.495670076350406
-0.5                      -0.25                    1.9166666666666667       -0.41392857477192596     16.976852843455017       5.282919329733791
-0.5                      -0.25                    2                        -0.43939717853893523     18.159752788710485       5.377446628089891
-0.5                      -0.16666666666666669     2                        -0.471194807459762       18.231009371808426       4.219099891026002
-0.5                      0.25                     1.9166666666666667       -0.5830466487611446      17.476690029840114       -1.4486297681777682
-0.5                      0.19468302675152505      1.936198929518678        -0.5543973000586481      17.693025551303926       -0.6620102123226752
-0.5                      0.25                     2                        -0.5580714455443071      18.66005688117818        -1.377059003686771
-0.5                      0.16666666666666663      2                        -0.5251363637600891      18.56468883829166        -0.21807355255836836
-0.5                      0.25                     1.7500000000000002       -0.633153258621448       15.154408601837984       -1.5618587206214263
-0.5                      0.18019588139533255      1.7875429785848498       -0.5855924375522319      15.593953598118132       -0.5871022013042695
-0.5                      0.25                     1.8333333333333335       -0.6065750717305144      16.312178027822764       -1.5105153234418687
-0.5                      0                        2                        -0.4984676110246566      18.38077200607239        2.000388806914641
-0.5                      0.08333333333333331      2                        -0.507061033972153       18.468551178796844       0.9013062066681362
-0.5                      0.03492524275572674      1.9252983138527522       -0.5072920279323238      17.37833133737085        1.4667326223903716
-0.5                      -0.04413462784302008     1.930518193471967        -0.488160723172755       17.37264185063012        2.5113441388499376
-0.5                      -0.08333333333333331     2                        -0.4898818861940935      18.30211269000135        3.100125389305165
-0.5                      0.03412569246402662      1.6086749722912874       -0.5238186741549758      12.956491785630078       1.1770752528540898
-0.5                      -0.034966072346528154    1.6413991744402874       -0.4745456546270881      13.336211570208045       2.08757860356986
-0.5                      0.035531221034160745     1.6888886254930788       -0.5207121285053398      14.063059488554254       1.232307621079931
-0.5                      0.17564833320777126      1.6176509465849755       -0.6264487610858757      13.240967418360528       -0.6304044941888383
-0.5                      0.25                     1.6666666666666667       -0.662260875769118       14.005961868539712       -1.6011470007430757
-0.5                      0.10631060148838248      1.6545905955011126       -0.5699896538418789      13.665387759208494       0.292121511499678
-0.5                      0.10820724087837158      1.7421551928696406       -0.557356364940777       14.881084818360625       0.33417138675090263
-0.5                      0.17758104817908105      1.7043023272157818       -0.6048874447839719      14.434183683841587       -0.607586590772526
-0.5                      0.11935648077962199      1.9232452629566557       -0.5307796307049434      17.434287837156145       0.34630497095965973
-0.5                      0.18867214260627357      1.8712682655537167       -0.5692623388611927      16.774489344257645       -0.6370780989051444
-0.5                      0.1174731461760842       1.8293430094164966       -0.54725857838439        16.111019094088878       0.2850678820574286
-0.5                      0.034167505239874704     1.7837071006351197       -0.5149505617458566      15.384352592553768       1.3384004004077439
-0.5                      -0.03513828673161834     1.71935586615623         -0.4785915007799377      14.415512085948665       2.174033443240116
-0.5                      -0.053139834470316505    1.7958894803458312       -0.4740682108093733      15.468701814865573       2.4904837231220056
-0.5                      -0.11057413408771173     1.7492966436709196       -0.4399892315160853      14.762193519780306       3.190467853787396
-0.5                      -0.25                    1.8333333333333335       -0.3905295336442501      15.812061888093753       5.178013954681429
-0.5                      -0.17786635370348694     1.7837648487080626       -0.41187242858879974     15.18259595730593        4.126855887463024
-0.5                      -0.17648492072580216     1.874089157404421        -0.43389348919114606     16.447977707802583       4.217811662086618
-0.5                      -0.11675769163463964     1.8083978493048474       -0.4464520609799102      15.583026509785219       3.3413483707923968
-0.5                      -0.08536820050984706     1.868425194883585        -0.468600809464015       16.457127106662224       2.9915312635232105
-0.5                      -0.12322310836370698     1.9387375808243625       -0.46790401011765387     17.40915121130034        3.568920730208055
-0.5                      -0.17707133112369694     1.4612064311854747       -0.32642793146279225     10.79046496742024        3.635198937594994
-0.5                      -0.25                    1.5000000000000002       -0.27108864910569525     11.257990640643927       4.642861832069208
-0.5                      -0.25                    1.5833333333333335       -0.3035277601916555      12.37183609424489        4.795427776793468
-0.5                      -0.17793049374158953     1.5439487471504683       -0.3486594072536713      11.889834356242744       3.7823836125157295
-0.5                      -0.17635936882093572     1.6289930152890288       -0.37331881989401744     13.044152547280957       3.892689081754995
-0.5                      -0.10611344382130276     1.6751340979974163       -0.4308166418309138      13.736124847530476       3.0413662666435077
-0.5                      -0.10640249058876494     1.592207709970702        -0.41707581922087034     12.598348687213191       2.938344944782644
-0.5                      0.056741881024224006     1.8677512128080216       -0.5185053019685286      16.589492726571727       1.1228616294980456
-0.5                      -0.00805282808194041     1.862113309827944        -0.49569650156509976     16.445294723964295       1.968630281707144