% Model:              block.mph
% Version:            COMSOL 6.3.0.335
% Date:               Apr 23 2025, 14:04
% Dimension:          3
% Nodes:              1222
% Expressions:        3
% Description:        , , 
% Length unit:        m
% X                       Y                        Z                        x+u (m)                  y+v (m)                  z+w (m)
-0.5                      0.12334026554063306      0.058654779297131254     -0.5103830163129738      0.11821606005033018      0.05380101011813199
-0.5                      0.16666666666666663      0                        -0.5                     0.16666666666666663      0
-0.5                      0.08333333333333331      0                        -0.5                     0.08333333333333331      0
-0.5                      -0.033687816529225784    0.06661959115573879      -0.49702208460060865     -0.041615754319306135    0.06824330786222145
-0.5                      0                        0                        -0.5                     0                        0
-0.5                      -0.08333333333333331     0                        -0.5                     -0.08333333333333331     0
-0.5                      0.04507389949456296      0.06573682950521431      -0.5040611397950848      0.0370477413830047       0.06356595507823785
-0.5                      0.19193879173387263      0.052290372929467255     -0.5136563982348065      0.19123771280832216      0.04445879402238021
-0.5                      0.25                     0                        -0.5                     0.25                     0
-0.5                      0.25                     0.08333333333333336      -0.5207894980553998      0.25421186187163863      0.06705565918308275
-0.5                      0.08533935595416114      0.1270691817354711       -0.5098710255849125      0.07856236058877174      0.1187400858610677
-0.49999999999999994      0.17452574373538438      0.12441268879082246      -0.519363239892797       0.1730756045645285       0.10703257644679501
-0.5                      0.25                     0.1666666666666667       -0.5320922528823576      0.25644927823982716      0.13542148124369136
-0.5                      -0.19804351781487872     0.055796016995343756     -0.48575707418369596     -0.19869438505323417     0.06521105534650233
-0.5                      -0.16666666666666669     0                        -0.5                     -0.16666666666666666     0
-0.5                      -0.25                    0                        -0.5                     -0.25                    0
-0.5                      -0.25                    0.08333333333333336      -0.4779374800205584      -0.24565967685405346     0.09992821833302457
-0.5                      -0.11956155883306634     0.07440367369011547      -0.4889574379969029      -0.1256098907429636      0.08158531425357278
-0.5                      -0.18975229969110305     0.12557696847349875      -0.4786153619948797      -0.19028037341046888     0.14497242467284743
-0.5                      -0.25                    0.1666666666666667       -0.4681243276603358      -0.24341147665992155     0.19783856972571623
-0.5                      -0.18111084114483497     0.20553737138791117      -0.4749483857949562      -0.17606148162357224     0.23412468295014513
-0.5                      -0.25                    0.25000000000000006      -0.4630542425495136      -0.23341188144146255     0.29623539009352906
-0.49999999999999994      -0.11612917918410198     0.16533049237414554      -0.4848490205457198      -0.11896739614226993     0.18023619121558795
-0.5                      -0.05757098090238943     0.12767843802140566      -0.4929363154658401      -0.06501643304079233     0.13333111773318698
-0.5                      0.00886882303327903      0.13286063698239103      -0.5010375927572702      7.402242614136384E-4     0.1319378474206707
-0.5                      0.05311696389661735      0.19888539860225318      -0.5072807313451208      0.051291470277493235     0.19097049468521718
-0.5                      0.25                     0.25000000000000006      -0.5368850370355035      0.2665172980175266       0.20384122681992542
-0.5                      0.17789897447325081      0.21249443370350707      -0.5248000816564699      0.18354818978281792      0.18377786419981343
-0.5                      0.11680420063876108      0.18686714592167664      -0.5157535330061608      0.11597063888402918      0.1703505505731292
-0.5                      0.1102783860556873       0.251106837603558        -0.5161783119916016      0.11799418810527444      0.23042284805938637
-0.5                      -0.037132723743444895    0.2067129228287521       -0.49472569170899305     -0.03831306992676936     0.2124783795720409
-0.5                      -0.11127175725402641     0.24994004180098717      -0.4835978782482085      -0.1037293878806922      0.270790958408065
-0.49999999999999994      -0.17961075371347637     0.2885418249120336       -0.4726926195832392      -0.16122718889389187     0.32702944095885716
-0.5                      -0.25                    0.3333333333333334       -0.460919437467268       -0.21617636853772673     0.39482151612284083
-0.5                      0.17762583355436273      0.29092707634925374      -0.5270094858041544      0.19634998998378247      0.25259289494250575
-0.5                      0.25                     0.3333333333333334       -0.539005690202598       0.28380362085478333      0.2718809605584618
-0.49999999999999994      0.033156032894851195     0.2733623225359332       -0.504956085636651       0.04280686213974865      0.26666190502769954
-0.5                      -0.038173893224196544    0.3032766143970448       -0.4941164855514643      -0.022216276728533515    0.3117790364490121
-0.5                      -0.25                    0.41666666666666674      -0.46038477205300227     -0.1923999354575224      0.4932112698412973
-0.5                      -0.1762503252154592      0.37480348042454614      -0.4722050431198888      -0.13683819888073478     0.4230850150125592
-0.5                      -0.10769619256333965     0.33858063056825527      -0.48314719723017624     -0.08144381687075793     0.3652672385487028
-0.5                      0.10085002673908876      0.3242481882795334       -0.5156294753672364      0.12327437134973075      0.300295945128176
-0.5                      0.03306901429721976      0.35951355199657076      -0.5051550937283875      0.06297217313326814      0.3509136078212192
-0.5                      -0.03850104312508469     0.3937632932563002       -0.4939037448565016      0.0014214756316575025    0.40474887645081375
-0.5                      -0.17623525668995887     0.46102562594159147      -0.4721642623466716      -0.10890826206917724     0.5196994081986892
-0.5                      -0.25                    0.5000000000000001       -0.46076986022345734     -0.16277058416858992     0.5911519157748254
-0.5                      0.1775966678044385       0.3750000000000002       -0.5279204223621009      0.2171534441525211       0.3264031688882251
-0.5                      0.25                     0.41666666666666674      -0.539548937345529       0.30759122099834646      0.3401827698244247
-0.5000000000000001       -0.10635892927348542     0.42673924548738873      -0.48313237258858194     -0.05424465127826442     0.45943398763670423
-0.5                      0.10516188651616018      0.4109719857567985       -0.5165875772136612      0.15209649006159212      0.3798269396946887
-0.49999999999999994      0.03443661712071928      0.44372536354846515      -0.5054249021909852      0.09062333750334296      0.4328304726385506
-0.5                      -0.036138415057592854    0.47746264128504734      -0.4942824626148841      0.03224574654090511      0.4897719859311486
-0.5                      0.1775966678044385       0.4583333333333335       -0.5279780201781029      0.2440373386005348       0.3995857748057685
-0.5                      0.25                     0.5000000000000001       -0.5391546027677389      0.3372196859173679       0.40892090388848334
-0.5                      -0.1064463876617158      0.5095459818790911       -0.48330707893458064     -0.023947284298590707    0.548133027984305
-0.5                      -0.17636566596051276     0.5439320731052355       -0.47264526767831544     -0.07643060156262373     0.6124057163482856
-0.5                      -0.25                    0.5833333333333335       -0.46176688860932463     -0.1277330595487961      0.6885465327806405
-0.5                      0.10518557709687718      0.4918801722394196       -0.5164724282654208      0.18070034135804394      0.45506278879232126
-0.5                      0.17759666780443845      0.5416666666666669       -0.5274632072144403      0.2766148459699433       0.473041422489945
-0.5                      0.25                     0.5833333333333335       -0.5381312641942911      0.37227237291537235      0.47821647841656695
-0.5                      -0.03590024690339028     0.5606624230777318       -0.4944285404617313      0.06645482902382462      0.5748172858994033
-0.5                      0.03356963608812162      0.5264868128436133       -0.5051955365373771      0.12129489973848863      0.5140543404019139
-0.5                      -0.10657898057660001     0.592911214175743        -0.48373069814113273     0.01193132770175169      0.6372943446729583
-0.5                      -0.25                    0.6666666666666667       -0.46322269089770746     -0.0876183913174845      0.7852651196282974
-0.5                      -0.17691967740957942     0.6272028396633393       -0.4734507710971226      -0.03901825031701742     0.7054026757542329
-0.5                      -0.10657399127271536     0.6763469192971825       -0.48435600255985317     0.05301310361399497      0.7262564651887051
-0.49999999999999994      -0.176522629917824       0.7108375426951806       -0.474619724473122       0.004353159490644826     0.7979325051910938
-0.5                      -0.25                    0.7500000000000001       -0.46490086799729585     -0.04290256222474345     0.8812848648764353
-0.5                      0.1775966678044385       0.6250000000000002       -0.5265889687156377      0.3144670621249826       0.5468305610826673
-0.5                      0.25                     0.6666666666666667       -0.5367122066597316      0.4123359115042602       0.5481344436081247
-0.5                      -0.03587436774862901     0.6437195643449041       -0.4946121216832308      0.1055214070676576       0.6597488316209951
-0.5                      0.10510116989496258      0.5751548016104506       -0.5160702967151254      0.21545705177543195      0.532662066751251
-0.49999999999999994      0.03347922260428255      0.6092354406188324       -0.5050188094481268      0.15804332762365936      0.595067840992843
-0.5                      0.1051020098898832       0.6592420305289421       -0.5154630870257343      0.25582196933128154      0.6112153794172482
-0.5                      0.1775966678044385       0.7083333333333335       -0.5254595852193765      0.3571681481097031       0.6210290580300959
-0.5                      0.25                     0.7500000000000001       -0.534971633525021       0.45711112928259295      0.6188069783569513
-0.5                      0.03360510635468289      0.6933482500642238       -0.5048136366567891      0.20061876596439407      0.677398004584184
-0.5                      -0.03587272869632462     0.7270482715220531       -0.49483904227687053     0.14950386563101017      0.7448865553701313
-0.49999999999999994      -0.10650517817119302     0.759638448350318        -0.4850966973091156      0.09874373039753374      0.8147622945682419
-0.5                      -0.17556057307810233     0.795017423606519        -0.47603936263315344     0.053084653824127394     0.8902428201557698
-0.5                      -0.25                    0.8333333333333333       -0.4667580267241103      0.006132712047817623     0.9765507134485355
-0.5                      -0.17654107012335182     0.8771673903407544       -0.47724666477154004     0.10292516341822465      0.9809078254175349
-0.5                      -0.25                    0.9166666666666669       -0.46879919120981084     0.05920021441927287      1.0710317669396587
-0.5                      0.10506390042619276      0.7417978963471611       -0.5147609851461296      0.3001138274969901       0.6885936548772326
-0.49999999999999994      0.03370456728581511      0.7759471561819535       -0.5046024208206809      0.24695180965223626      0.7583390291210738
-0.5                      0.10504300017883711      0.8252280829025168       -0.5139503155890944      0.3492414998920483       0.7670673130548994
-0.5000000000000001       0.17759666780443856      0.7916666666666666       -0.5241835663375203      0.40436168876127304      0.6957252701750559
-0.5                      0.25                     0.8333333333333333       -0.5330958067933738      0.506143777802916        0.6902040415560196
-0.5                      -0.035863381759697055    0.8103434773683151       -0.4951055598604152      0.1979175897377118       0.8298806510459312
-0.5                      0.03375192374282965      0.8593888569174015       -0.5043348095034005      0.29794530513877643      0.8401908352192198
-0.5                      -0.10570151776941485     0.8432430773355437       -0.4860066184832324      0.1496607293767553       0.9029139015513815
-0.5                      -0.035882005616415996    0.8942604359289308       -0.49538338131867904     0.250793549004092        0.915429723612959
-0.5                      -0.10614388782123707     0.9261756546598438       -0.4868046338462175      0.2029222223198711       0.9907219130903501
-0.5                      -0.17551077596694112     0.9626471540834421       -0.47884997002493973     0.1606936627130006       1.0734351567872429
-0.5                      -0.25                    1.0000000000000002       -0.47086197143666036     0.11589765530799774      1.164730064945856
-0.5                      0.10500371948525253      0.9087376267892161       -0.5131099320579664      0.4024290385192186       0.8459190963227786
-0.5                      0.25                     0.9166666666666669       -0.5311114603390285      0.559159691343738        0.7623879873967255
-0.5                      0.1775966678044385       0.9583333333333335       -0.5213272507404825      0.5109412521462011       0.8466395276532737
-0.5                      0.25                     1.0000000000000002       -0.5289856860766897      0.6159099441854696       0.8353735704533377
-0.5                      0.17759666780443845      0.8750000000000001       -0.5227909062200881      0.4557275137419314       0.7708993941842728
-0.5                      0.034331816068642385     0.943154710018888        -0.5041314001569877      0.35360137601798053      0.9221102057495384
-0.5                      -0.10409249298457061     1.0103656437446995       -0.487927665649051       0.2631170400529193       1.077947261567518
-0.5                      -0.1764475664303377      1.0461976884687025       -0.48024181517779924     0.21884463330523599      1.1645887540367577
-0.5                      -0.25                    1.0833333333333335       -0.4729663224685825      0.1759689218306464       1.2576269143259484
-0.5                      -0.03569346682177778     0.9755113363839463       -0.49568059690676064     0.3058601421657101       0.9980426899913301
-0.5                      -0.03527401864946626     1.0578119931475463       -0.49602446749878        0.3651961967232376       1.0814306839942278
-0.5                      -0.10399037214721053     1.0917605431514563       -0.4887831317255808      0.32270328625453915      1.1631229579175872
-0.5                      -0.033329717652215846    1.140313430919057        -0.49651357546841407     0.42928704064445283      1.1638206780069564
-0.5                      0.10476906910099176      0.9923692931416438       -0.5121937925386285      0.4592621475317284       0.9253315099152722
-0.5                      0.034349910523257365     1.1091119745145124       -0.5035377544046673      0.4731132564019204       1.0854352278323474
-0.49999999999999994      0.033290332486715035     1.0246943219569107       -0.5037147596858392      0.40963049867644274      1.0030033379466552
-0.5                      0.10100542412815589      1.0761864213913235       -0.5109004258663409      0.5160192379466442       1.0076856661121563
-0.5                      0.1775966678044385       1.041666666666667        -0.519841322673929       0.5696657089400431       0.922938200726145
-0.5                      0.25                     1.0833333333333335       -0.526875652702471       0.6759770136369542       0.9091285708312039
-0.5                      0.1775966678044385       1.1250000000000002       -0.5183377401488986      0.631574548150522        0.9997497217339265
-0.5                      0.25                     1.166666666666667        -0.5248050073897236      0.7390775386275555       0.983736172587058
-0.5                      0.17759666780443853      1.2083333333333335       -0.5168532966841292      0.6963962983546691       1.0771795567053601
-0.5                      0.25                     1.2500000000000002       -0.5227315214490506      0.8049552359796809       1.0591669944348918
-0.5                      0.10139842737882665      1.1594855289954675       -0.5100791856567574      0.5797670688418587       1.0871610122814792
-0.5                      0.10175128743897877      1.242609524816578        -0.5092730977107092      0.6460991123433333       1.1667498587644614
-0.5                      -0.25                    1.166666666666667        -0.4750560853574006      0.23906738615233447      1.3496793249699761
-0.5                      -0.17687475084082208     1.1286712586018797       -0.4816519192731155      0.2798939546180143       1.2537444306231604
-0.5                      -0.10401297060707398     1.1738203617150995       -0.48964937116846324     0.3856051981868474       1.2487294249063845
-0.5                      -0.1770671822037969      1.2108335152302832       -0.48306099105773553     0.3436985164341657       1.3418710237669063
-0.5                      -0.25                    1.2500000000000002       -0.47709003951143564     0.30494262211162515      1.4409169669575066
-0.5                      0.17759666780443845      1.291666666666667        -0.5154135103205365      0.7638178979299529       1.1551745666422297
-0.5                      0.25                     1.3333333333333337       -0.5207503955888243      0.873235541297419        1.1354444953662612
-0.5                      0.1018337016438744       1.3257616696508356       -0.5084695352063676      0.7146293992447825       1.2469112863984886
-0.5                      0.03418738094612178      1.2754521205311213       -0.502955266881307       0.6045147068165564       1.2496616064442119
-0.5                      0.03451529297804351      1.1919700174997163       -0.5032675545511412      0.5375022619239926       1.1670000227936068
-0.5                      -0.03335096011705255     1.223825934777368        -0.4967845809655819      0.4950083879847273       1.2484525209682875
-0.5                      -0.10404281323878531     1.2573514413655018       -0.49049323704709896     0.4523249597581142       1.3355533199793161
-0.5                      -0.17584057962398705     1.2941542264374533       -0.4846279648684532      0.41236429746585385      1.429507380179082
-0.5                      -0.25                    1.3333333333333337       -0.47905955437181863     0.37321393293743466      1.5312869020642645
-0.5                      -0.03553862590928791     1.3086809173031462       -0.4968773110928022      0.5622750559475738       1.3359818400472465
-0.5                      -0.25                    1.416666666666667        -0.480920242743502       0.4436236652823639       1.6208612186871163
-0.5                      -0.1774943921837701      1.3783348431881064       -0.4858050453921176      0.481249359685521        1.5198104870580258
-0.5                      -0.10484911232251876     1.3427719473539657       -0.4912586634604014      0.5222623898253475       1.4246403360650355
-0.49999999999999994      -0.10653577361820914     1.4246247963608476       -0.49188540685338333     0.5904613425018642       1.510420617539901
-0.5                      -0.17707133112369694     1.4612064311854747       -0.4871016542060364      0.5529536762161182       1.6064275343351377
-0.5                      -0.25                    1.5000000000000002       -0.4825784559824613      0.5157659963739282       1.709514935084366
-0.5                      0.03302509733811587      1.3587183312561955       -0.5025790540795216      0.672856424379665        1.3328992102088089
-0.5                      -0.03441704411745067     1.3925793048628048       -0.4972215043512324      0.6342839034866693       1.4199239847503182
-0.5                      0.1775966678044385       1.3750000000000002       -0.5140638243837463      0.833518682716436        1.233715549347749
-0.5                      0.25                     1.416666666666667        -0.518922626498819       0.9436101978675738       1.212559309850363
-0.5                      0.03424383649351226      1.441866242115406        -0.5024391035713136      0.7455081630284989       1.4142626860442176
-0.5                      0.17759666780443853      1.4583333333333335       -0.5127936451393436      0.905123923259724        1.3128894064395968
-0.5                      0.25                     1.5000000000000002       -0.517233473109948       1.015765914592694        1.2905677591129026
-0.49999999999999994      0.10152289646808071      1.4088083430533334       -0.5076943324680974      0.7848108296823703       1.3276290173455416
-0.5                      0.10258989401388985      1.4931232441781939       -0.5070533594410239      0.8592969979638658       1.4087517253346407
-0.5                      0.1775966678044385       1.5416666666666667       -0.5116747671864362      0.9783777603173923       1.392680206041712
-0.5                      0.25                     1.5833333333333335       -0.5157567935365192      1.0893406348324506       1.3695229699181672
-0.49999999999999994      0.03447856902327823      1.525353432429497        -0.5022144697568813      0.8191546402233597       1.4968363356053354
-0.5                      -0.035438967063984084    1.558162458494731        -0.49760800912923336     0.7784845063683276       1.5878170146025814
-0.5                      0.03412569246402662      1.6086749722912874       -0.5019928967827535      0.8934165717731647       1.5798618779334193
-0.49999999999999994      -0.10583792766310034     1.50861691640331         -0.49264052329442015     0.6645777928129205       1.5961682889396578
-0.5                      -0.17793049374158953     1.5439487471504683       -0.4881570490260207      0.6248714086091027       1.693368606498094
-0.5                      -0.25                    1.5833333333333335       -0.4840342521061069      0.5893065247825834       1.7972069098860735
-0.5                      -0.03553008718265013     1.474490933408319        -0.49737634351775384     0.7042522598916895       1.5035302101229588
-0.5                      0.10257958372703634      1.5745546169715336       -0.5064456978351933      0.9316221239663335       1.4883124114109405
-0.5                      0.18867214260627357      1.8712682655537167       -0.50885245442776        1.2872747422957591       1.705293162594505
-0.5                      0.25                     1.9166666666666667       -0.5115698395807748      1.3895752493801705       1.6956405998581052
-0.5                      0.25                     1.8333333333333335       -0.5125581362952075      1.3144476965998335       1.6126383876184225
-0.5                      0.19468302675152505      1.936198929518678        -0.5084192313151567      1.351849662580344        1.7646877015456908
-0.5                      0.25                     2                        -0.510398498487895       1.4641929148605062       1.7791033670852376
-0.5                      0.16666666666666663      2                        -0.5060840675535955      1.3809067803561081       1.853445662177981
-0.5                      0.17564833320777126      1.6176509465849755       -0.5106423273990206      1.0442631338557984       1.467713440493308
-0.5                      0.25                     1.6666666666666667       -0.5145279280599183      1.1638939802520634       1.4495116878327414
-0.5                      0.25                     1.7500000000000002       -0.5134841812421418      1.2390846454979683       1.5305263244082798
-0.5                      0.18019588139533255      1.7875429785848498       -0.5092228393819127      1.2027495245917665       1.6298666909275707
-0.5                      0.17758104817908105      1.7043023272157818       -0.509873200478693       1.1244918628760325       1.5504083661269672
-0.5                      0.10631060148838248      1.6545905955011126       -0.5061318279523751      1.0074819834801698       1.563680795142779
-0.5                      0.035531221034160745     1.6888886254930788       -0.5018945461152238      0.9675487871649221       1.658428810946561
-0.5                      0.10820724087837158      1.7421551928696406       -0.505684060852944       1.0890398120887215       1.6483453024283055
-0.5                      0.034167505239874704     1.7837071006351197       -0.5016272290195084      1.05278174723132         1.754052424441921
-0.5                      -0.10640249058876494     1.592207709970702        -0.49324165678336856     0.7385038651805167       1.6821377974353628
-0.5                      -0.03513828673161834     1.71935586615623         -0.4979629039416458      0.9246504200244773       1.7497251063557073
-0.5                      -0.034966072346528154    1.6413991744402874       -0.4978224856077462      0.853901235465119        1.6712184378877133
-0.5                      -0.10611344382130276     1.6751340979974163       -0.4938050230817162      0.8137038737890935       1.7663076883195068
-0.5                      -0.11057413408771173     1.7492966436709196       -0.4940212510878778      0.8768047664052582       1.8453252592828029
-0.5                      -0.1792984598379072      1.7076451696884192       -0.4898680268960865      0.7706692598952786       1.86321550690567
-0.5                      -0.25                    1.6666666666666667       -0.48527370674526954     0.6638779802859225       1.883925927648306
-0.5                      -0.25                    1.7500000000000002       -0.48632908413464954     0.7391125860824207       1.969551130472795
-0.5                      -0.17635936882093572     1.6289930152890288       -0.48923050745229907     0.7024724166521565       1.779973534780405
-0.5                      0.1174731461760842       1.8293430094164966       -0.5055829463103291      1.177901904094538        1.7266369025042219
-0.5                      0.11935648077962199      1.9232452629566557       -0.5048680802836102      1.264981970051054        1.818554287642708
-0.5                      0.056741881024224006     1.8677512128080216       -0.5024377422636419      1.152100550505325        1.81819892819976
-0.5                      -0.00805282808194041     1.862113309827944        -0.499514061663405       1.0822070892442037       1.869201291324611
-0.5                      0.08333333333333331      2                        -0.5025925213552568      1.2976129048542309       1.9271160283047168
-0.5                      -0.053139834470316505    1.7958894803458312       -0.49723871816394044     0.9766071077711086       1.842196035166715
-0.5                      -0.17786635370348694     1.7837648487080626       -0.4906526076695609      0.8412605263923597       1.9394192918375806
-0.5                      -0.11675769163463964     1.8083978493048474       -0.49408554011999        0.9245304261299758       1.9104177454440454
-0.5                      -0.25                    1.8333333333333335       -0.48726466923703543     0.8144943117443448       2.054124194465914
-0.5                      0.03492524275572674      1.9252983138527522       -0.5012625667760271      1.1825623056803811       1.894816789972985
-0.5                      -0.04413462784302008     1.930518193471967        -0.49814505750900384     1.1082202868170483       1.9691871907128728
-0.5                      0                        2                        -0.49985137871617463     1.2142938950419617       2.000062531156569
-0.5                      -0.08333333333333331     2                        -0.497152167060404       1.1309560085986978       2.072991338906333
-0.5                      -0.25                    1.9166666666666667       -0.48824573798708243     0.8896171635084337       2.137769935217968
-0.5                      -0.17648492072580216     1.874089157404421        -0.49158893677395277     0.924671941155812        2.0293271116351455
-0.5                      -0.19103219457896936     1.9461008851713737       -0.49170633041891226     0.9750440834768742       2.1144602882006236
-0.5                      -0.08536820050984706     1.868425194883585        -0.4960244885177813      1.0106360562097285       1.9431806119436619
-0.5                      -0.12322310836370698     1.9387375808243625       -0.49485706345698954     1.036344058810502        2.046925902640894
-0.5                      -0.16666666666666669     2                        -0.4936730127190727      1.0475891633182177       2.1466194051179683
-0.5                      -0.25                    2                        -0.4893910127942826      0.9641926435393141       2.220967583727178
0.4457156481625314        -0.25                    0.06231588285580969      0.43225192832923154      -0.24193758711022179     0.07099615156922123