% Model:              block.mph
% Version:            COMSOL 6.3.0.335
% Date:               Apr 23 2025, 15:01
% Dimension:          3
% Nodes:              1222
% Expressions:        3
% Description:        , , 
% Length unit:        m
% X                       Y                        Z                        x+u (m)                  y+v (m)                  z+w (m)
-0.5                      0.12334026554063306      0.058654779297131254     -0.5103816493334509      0.11821901019181007      0.05380172621512947
-0.5                      0.16666666666666663      0                        -0.5                     0.16666666666666663      0
-0.5                      0.08333333333333331      0                        -0.5                     0.08333333333333331      0
-0.5                      -0.033687816529225784    0.06661959115573879      -0.4970225004216648      -0.04161192596325097     0.06824301555757384
-0.5                      0                        0                        -0.5                     0                        0
-0.5                      -0.08333333333333331     0                        -0.5                     -0.08333333333333331     0
-0.5                      0.04507389949456296      0.06573682950521431      -0.5040605672787802      0.03705153333829672      0.06356629986295016
-0.5                      0.19193879173387263      0.052290372929467255     -0.5136549452135248      0.19123966722421634      0.044459585112437486
-0.5                      0.25                     0                        -0.5                     0.25                     0
-0.5                      0.25                     0.08333333333333336      -0.52078669877383        0.2542150525594425       0.06705566604239753
-0.5                      0.08533935595416114      0.1270691817354711       -0.5098690837869535      0.07856928714170591      0.11874150350085212
-0.49999999999999994      0.17452574373538438      0.12441268879082246      -0.519359435701051       0.17308172908286726      0.1070346639028338
-0.5                      0.25                     0.1666666666666667       -0.5320845013981753      0.25645774389349646      0.13542195872171806
-0.5                      -0.19804351781487872     0.055796016995343756     -0.48575867281693974     -0.19869227850845045     0.06521002148778585
-0.5                      -0.16666666666666669     0                        -0.5                     -0.16666666666666666     0
-0.5                      -0.25                    0                        -0.5                     -0.25                    0
-0.5                      -0.25                    0.08333333333333336      -0.4779404285209364      -0.24565639031085426     0.09992823909075182
-0.5                      -0.11956155883306634     0.07440367369011547      -0.4889590070158465      -0.12560609878998422     0.08158414350756292
-0.5                      -0.18975229969110305     0.12557696847349875      -0.47861953802057683     -0.1902743132443601      0.14497045571851266
-0.5                      -0.25                    0.1666666666666667       -0.46813205138641983     -0.24340304435570367     0.19783805914117367
-0.5                      -0.18111084114483497     0.20553737138791117      -0.47495580792089337     -0.17605005798744702     0.23412146948501067
-0.5                      -0.25                    0.25000000000000006      -0.4630675572591407      -0.23339769501001043     0.2962341037496765
-0.49999999999999994      -0.11612917918410198     0.16533049237414554      -0.48485265824355234     -0.11895832302131469     0.18023386958301704
-0.5                      -0.05757098090238943     0.12767843802140566      -0.49293768097441076     -0.06500934420370333     0.1333300989553016
-0.5                      0.00886882303327903      0.13286063698239103      -0.5010373837941499      7.477224589438908E-4     0.1319380072111567
-0.5                      0.05311696389661735      0.19888539860225318      -0.5072786563542767      0.05130311026122703      0.19097190221826735
-0.5                      0.25                     0.25000000000000006      -0.5368717412278617      0.2665314855739051       0.20384248409816882
-0.5                      0.17789897447325081      0.21249443370350707      -0.5247924886359864      0.18356008314883118      0.1837811018016958
-0.5                      0.11680420063876108      0.18686714592167664      -0.515749310633743       0.1159812009025443       0.17035312456423304
-0.5                      0.1102783860556873       0.251106837603558        -0.5161723991861801      0.11800946834040195      0.23042618421034186
-0.5                      -0.037132723743444895    0.2067129228287521       -0.49472723148695236     -0.03830086284789188     0.2124773258389843
-0.5                      -0.11127175725402641     0.24994004180098717      -0.4836037825247927      -0.10371425207042763     0.2707876129185998
-0.49999999999999994      -0.17961075371347637     0.2885418249120336       -0.4727042957258834      -0.1612094026077722      0.3270247837306177
-0.5                      -0.25                    0.3333333333333334       -0.46093976951572463     -0.21615521706021681     0.39481894484698493
-0.5                      0.17762583355436273      0.29092707634925374      -0.5269977169562042      0.19636800481460617      0.25259754264967643
-0.5                      0.25                     0.3333333333333334       -0.538985386884916       0.2838247446373286       0.2718835520686547
-0.49999999999999994      0.033156032894851195     0.2733623225359332       -0.5049540970617638      0.04282419343676879      0.2666631597344855
-0.5                      -0.038173893224196544    0.3032766143970448       -0.49411916722089755     -0.0221963835701107      0.3117773862757937
-0.5                      -0.25                    0.41666666666666674      -0.460414184036498       -0.19237015890380074     0.49320678440861593
-0.5                      -0.1762503252154592      0.37480348042454614      -0.4722223565629054      -0.1368121020411385      0.42307817596496605
-0.5                      -0.10769619256333965     0.33858063056825527      -0.48315609560837075     -0.0814208499111496      0.36526250371828545
-0.5                      0.10085002673908876      0.3242481882795334       -0.5156217068325235      0.12329594965720102      0.3003001963161082
-0.5                      0.03306901429721976      0.35951355199657076      -0.5051521242229867      0.06299764688381805      0.3509153880648093
-0.5                      -0.03850104312508469     0.3937632932563002       -0.4939078716263416      0.0014507774017009645    0.40474652306295117
-0.5                      -0.17623525668995887     0.46102562594159147      -0.4721893234851933      -0.10887155741160205     0.5196892825920408
-0.5                      -0.25                    0.5000000000000001       -0.4608116805418962      -0.1627295024301245      0.5911448920067252
-0.5                      0.1775966678044385       0.3750000000000002       -0.5279029875436066      0.21717951411623657      0.3264100503124534
-0.5                      0.25                     0.41666666666666674      -0.5395195072171522      0.3076209716835207       0.340187149366322
-0.5000000000000001       -0.10635892927348542     0.42673924548738873      -0.4831454135213275      -0.054211648551380255    0.4594271867806387
-0.5                      0.10516188651616018      0.4109719857567985       -0.5165755974799621      0.15212760319333832      0.3798332511682076
-0.49999999999999994      0.03443661712071928      0.44372536354846515      -0.5054204872841207      0.09065916703930109      0.43283310525848634
-0.5                      -0.036138415057592854    0.47746264128504734      -0.49428794172030904     0.032286531865105945     0.48976876572473044
-0.5                      0.1775966678044385       0.4583333333333335       -0.5279530361328995      0.24407366227079966      0.3995955891815037
-0.5                      0.25                     0.5000000000000001       -0.5391130525027149      0.3372606191206504       0.40892789339509933
-0.5                      -0.1064463876617158      0.5095459818790911       -0.4833255359057885      -0.023901903313192807    0.548123232594366
-0.5                      -0.17636566596051276     0.5439320731052355       -0.4726806035963829      -0.07638026076567071     0.6123911851983261
-0.5                      -0.25                    0.5833333333333335       -0.46182533227180594     -0.12767722675215074     0.6885359318175568
-0.5                      0.10518557709687718      0.4918801722394196       -0.5164554736201029      0.18074285622233768      0.45507167280450916
-0.5                      0.17759666780443845      0.5416666666666669       -0.52742785486762        0.2766645660218279       0.4730557365970603
-0.5                      0.25                     0.5833333333333335       -0.5380726240421958      0.37232841327945176      0.4782271217483908
-0.5                      -0.03590024690339028     0.5606624230777318       -0.4944362139963346      0.06651080192071644      0.5748126543217994
-0.5                      0.03356963608812162      0.5264868128436133       -0.5051893645300315      0.12134406467907177      0.5140579089518403
-0.5                      -0.10657898057660001     0.592911214175743        -0.4837566549425106      0.011993534821022972     0.6372806478054452
-0.5                      -0.25                    0.6666666666666667       -0.46330534012287333     -0.08754147709327399     0.7852494780401565
-0.5                      -0.17691967740957942     0.6272028396633393       -0.47350080859445426     -0.038949645750980005    0.7053822158217878
-0.5                      -0.10657399127271536     0.6763469192971825       -0.4843925868799159      0.0530976400390424       0.7262372404813678
-0.49999999999999994      -0.176522629917824       0.7108375426951806       -0.4746893730766977      0.004446708761725926     0.7979034747608987
-0.5                      -0.25                    0.7500000000000001       -0.4650156707495814      -0.04279837281715079     0.881262780539572
-0.5                      0.1775966678044385       0.6250000000000002       -0.5265394596954346      0.31453521606233625      0.5468509388140043
-0.5                      0.25                     0.6666666666666667       -0.5366303957398392      0.4124120549725427       0.5481496260441285
-0.5                      -0.03587436774862901     0.6437195643449041       -0.4946228699262218      0.10559759162359846      0.6597425251921517
-0.5                      0.10510116989496258      0.5751548016104506       -0.5160465101403098      0.21551528262109731      0.5326747164264513
-0.49999999999999994      0.03347922260428255      0.6092354406188324       -0.5050101355768543      0.1581104254121103       0.595072864259104
-0.5                      0.1051020098898832       0.6592420305289421       -0.5154294541867431      0.2559013965621992       0.611232949278858
-0.5                      0.1775966678044385       0.7083333333333335       -0.5253899031092821      0.35726078250151         0.6210572055098248
-0.5                      0.25                     0.7500000000000001       -0.5348566861049933      0.4572155164659461       0.6188292672482718
-0.5                      0.03360510635468289      0.6933482500642238       -0.5048013910827213      0.20071023629119614      0.677405136548434
-0.5                      -0.03587272869632462     0.7270482715220531       -0.4948541299691893      0.14960740920948912      0.7448776914739766
-0.49999999999999994      -0.10650517817119302     0.759638448350318        -0.48514755385893915     0.09885911701081247      0.8147350023953251
-0.5                      -0.17556057307810233     0.795017423606519        -0.47613633799160476     0.053212329404983494     0.8902030099229892
-0.5                      -0.25                    0.8333333333333333       -0.46691738549384715     0.006274303034286055     0.9765201151306274
-0.5                      -0.17654107012335182     0.8771673903407544       -0.47738199640620377     0.10309814398808091      0.9808535786179
-0.5                      -0.25                    0.9166666666666669       -0.4690227887084934      0.05939485210973883      1.0709904299605597
-0.5                      0.10506390042619276      0.7417978963471611       -0.5147143832606415      0.3002217637195059       0.6886183637256967
-0.49999999999999994      0.03370456728581511      0.7759471561819535       -0.5045854641567377      0.24707585269282886      0.7583491058220333
-0.5                      0.10504300017883711      0.8252280829025168       -0.5138847686548688      0.34938848634772124      0.7671012657389621
-0.5000000000000001       0.17759666780443856      0.7916666666666666       -0.5240869814672512      0.4044874222363872       0.695764688676611
-0.5                      0.25                     0.8333333333333333       -0.5329357903345658      0.5062858562829101       0.6902347184279766
-0.5                      -0.035863381759697055    0.8103434773683151       -0.4951265633215409      0.198058235342762        0.8298686019455005
-0.5                      0.03375192374282965      0.8593888569174015       -0.5043109240330197      0.2981138104094861       0.8402047751682612
-0.5                      -0.10570151776941485     0.8432430773355437       -0.4860771165061098      0.1498173505138816       0.9028775028879757
-0.5                      -0.035882005616415996    0.8942604359289308       -0.4954130599743956      0.25098550332551556      0.915413256441024
-0.5                      -0.10614388782123707     0.9261756546598438       -0.4869038234088134      0.20313570065841244      0.9906722361738308
-0.5                      -0.17551077596694112     0.9626471540834421       -0.4790389973869001      0.1609320797830672       1.0733608780781285
-0.5                      -0.25                    1.0000000000000002       -0.47117418626593494     0.11616475227817868      1.1646765639186178
-0.5                      0.10500371948525253      0.9087376267892161       -0.5130185562404638      0.40262865761290817      0.8459651598587205
-0.5                      0.25                     0.9166666666666669       -0.5308896054271594      0.5593530727007877       0.7624291564860642
-0.5                      0.1775966678044385       0.9583333333333335       -0.5211380450141068      0.5111759260919392       0.8467112089813504
-0.5                      0.25                     1.0000000000000002       -0.5286729626762131      0.6161777543034197       0.8354272496957736
-0.5                      0.17759666780443845      0.8750000000000001       -0.5226559584250449      0.4558991175955523       0.7709524786062558
-0.5                      0.034331816068642385     0.943154710018888        -0.5040974537189337      0.3538312115047942       0.9221285138645962
-0.5                      -0.10409249298457061     1.0103656437446995       -0.48806438495077636     0.26340847850087185      1.0778814587935235
-0.5                      -0.1764475664303377      1.0461976884687025       -0.48050902530448086     0.21917150289940054      1.1644917711350173
-0.5                      -0.25                    1.0833333333333335       -0.47340027864832895     0.17633594568577715      1.2575609215301584
-0.5                      -0.03569346682177778     0.9755113363839463       -0.49572122697997584     0.3061193074360766       0.9980210041667915
-0.5                      -0.03527401864946626     1.0578119931475463       -0.49608045639485426     0.3655476858763477       1.0814020222679355
-0.5                      -0.10399037214721053     1.0917605431514563       -0.48897102899647943     0.3230980653946252       1.1630382642653938
-0.5                      -0.033329717652215846    1.140313430919057        -0.4965860982998686      0.42976411886490334      1.1637851639729193
-0.5                      0.10476906910099176      0.9923692931416438       -0.5120666534646047      0.4595345773114108       0.9253931598064081
-0.5                      0.034349910523257365     1.1091119745145124       -0.5034718855995601      0.4735384521856873       1.0854679507302556
-0.49999999999999994      0.033290332486715035     1.0246943219569107       -0.5036686701519896      0.4099411549508081       1.003027374240884
-0.5                      0.10100542412815589      1.0761864213913235       -0.5107289592672575      0.516391661702598        1.0077649587829265
-0.5                      0.1775966678044385       1.041666666666667        -0.519578285560561       0.5699871669672616       0.9230349631821361
-0.5                      0.25                     1.0833333333333335       -0.52644104535751        0.6763446670096216       0.9091937920150882
-0.5                      0.1775966678044385       1.1250000000000002       -0.5179702401426294      0.6320127873463731       0.9998723364702437
-0.5                      0.25                     1.166666666666667        -0.5242036967894056      0.7395825893655826       0.9838144071691796
-0.5                      0.17759666780443853      1.2083333333333335       -0.5163437781195449      0.696998105445117        1.0773361829112387
-0.5                      0.25                     1.2500000000000002       -0.5218925346858488      0.8056576392224016       1.0592503791966157
-0.5                      0.10139842737882665      1.1594855289954675       -0.5098384976492659      0.5802757430908425       1.087265690967372
-0.5                      0.10175128743897877      1.242609524816578        -0.5089386002548492      0.6467924794418313       1.1668795317098646
-0.5                      -0.25                    1.166666666666667        -0.47566150767966636     0.23957435564983         1.3496017033897487
-0.5                      -0.17687475084082208     1.1286712586018797       -0.4820228738541989      0.2803392349104143       1.2536173053365667
-0.5                      -0.10401297060707398     1.1738203617150995       -0.4899099621718426      0.3861421253658925       1.2486189241677346
-0.5                      -0.1770671822037969      1.2108335152302832       -0.48357405795007363     0.34430570728032306      1.341718958829106
-0.5                      -0.25                    1.2500000000000002       -0.47792716988711054     0.30564203574467275      1.4408344839275744
-0.5                      0.17759666780443845      1.291666666666667        -0.5147064166698252      0.7646482782266623       1.1553620004986505
-0.5                      0.25                     1.3333333333333337       -0.519588978813362       0.8742096536404177       1.1355132718067278
-0.5                      0.1018337016438744       1.3257616696508356       -0.5080102225152161      0.7155744411547039       1.247071057079246
-0.5                      0.03418738094612178      1.2754521205311213       -0.5028281024451577      0.6053001995023032       1.2497126970431152
-0.5                      0.03451529297804351      1.1919700174997163       -0.5031737143678178      0.5380802337149158       1.1670423724101402
-0.5                      -0.03335096011705255     1.223825934777368        -0.49688507718408653     0.4956565525304204       1.2484089363209605
-0.5                      -0.10404281323878531     1.2573514413655018       -0.49085455692073515     0.4530573038054193       1.3354122903642596
-0.5                      -0.17584057962398705     1.2941542264374533       -0.4853366794346043      0.4131994894235818       1.4293199320531988
-0.5                      -0.25                    1.3333333333333337       -0.4802160323330275      0.37418446859287635      1.531210767913761
-0.5                      -0.03553862590928791     1.3086809173031462       -0.4970287835331058      0.5631646129592217       1.3359230144257592
-0.5                      -0.25                    1.416666666666667        -0.4825138299996952      0.444980850618477        1.6208412204630382
-0.5                      -0.1774943921837701      1.3783348431881064       -0.48678947861706817     0.48240188993956074      1.5196078055558686
-0.5                      -0.10484911232251876     1.3427719473539657       -0.49176447502440407     0.5232686857776261       1.4244758917029288
-0.49999999999999994      -0.10653577361820914     1.4246247963608476       -0.492583080463538       0.5918341231798054       1.5102288710759542
-0.5                      -0.17707133112369694     1.4612064311854747       -0.48842798167070905     0.5545391725307889       1.6062210793741694
-0.5                      -0.25                    1.5000000000000002       -0.48473422369628666     0.5176545837740183       1.7096169965954644
-0.5                      0.03302509733811587      1.3587183312561955       -0.5024109545691903      0.6739231062672891       1.3329586345211648
-0.5                      -0.03441704411745067     1.3925793048628048       -0.49741968178588464     0.6354925050403386       1.4198567144767154
-0.5                      0.1775966678044385       1.3750000000000002       -0.5130959724429965      0.8346606596949827       1.23392500211677
-0.5                      0.25                     1.416666666666667        -0.5173305303673891      0.9449673768448          1.2125819451930304
-0.5                      0.03424383649351226      1.441866242115406        -0.5022027485649531      0.7469623199495395       1.4143316408174744
-0.5                      0.17759666780443853      1.4583333333333335       -0.5114699198221678      0.9066910559818533       1.3130791097407075
-0.5                      0.25                     1.5000000000000002       -0.5150837117482715      1.0176484605375842       1.2904655313544007
-0.49999999999999994      0.10152289646808071      1.4088083430533334       -0.5070653744861983      0.7861039255727049       1.3278141642725945
-0.5                      0.10258989401388985      1.4931232441781939       -0.5061944913381513      0.8610677836759301       1.4089356967109599
-0.5                      0.1775966678044385       1.5416666666666667       -0.5099012531237345      0.9805424038976841       1.3928260878344416
-0.5                      0.25                     1.5833333333333335       -0.5128670386011689      1.0919882086309542       1.369187776380258
-0.49999999999999994      0.03447856902327823      1.525353432429497        -0.501898557984104       0.8211304221570161       1.4969105500938193
-0.5                      -0.035438967063984084    1.558162458494731        -0.4979750930785088      0.7807183594379384       1.5877441635765006
-0.5                      0.03412569246402662      1.6086749722912874       -0.5015828527200458      0.8961181664131511       1.5799159643338168
-0.49999999999999994      -0.10583792766310034     1.50861691640331         -0.49357639530406444     0.6664458041550118       1.5959869336826868
-0.5                      -0.17793049374158953     1.5439487471504683       -0.48994098318739604     0.6270560873988354       1.6932209925800057
-0.5                      -0.25                    1.5833333333333335       -0.48691518930345307     0.591946223487091        1.7975349476949207
-0.5                      -0.03553008718265013     1.474490933408319        -0.4976517467810742      0.7058912341578115       1.5034557894088862
-0.5                      0.10257958372703634      1.5745546169715336       -0.505323254558044       0.9340170407825311       1.4884701002880947
-0.5                      0.18867214260627357      1.8712682655537167       -0.5045706040161062      1.2949475662971945       1.704009363183746
-0.5                      0.25                     1.9166666666666667       -0.5055009972412895      1.3990303644192574       1.6922526219804779
-0.5                      0.25                     1.8333333333333335       -0.5070780722715645      1.3213545757531815       1.6103510947392883
-0.5                      0.19468302675152505      1.936198929518678        -0.5036214213378658      1.3618262101626528       1.7629326917446888
-0.5                      0.25                     2                        -0.5038088545062461      1.477943397705113        1.774828953037721
-0.5                      0.16666666666666663      2                        -0.5017234434364723      1.393760307332809        1.8520687622347856
-0.5                      0.17564833320777126      1.6176509465849755       -0.5084028904285917      1.0471635939313748       1.4677394039040015
-0.5                      0.25                     1.6666666666666667       -0.5107934393647696      1.1675571455455203       1.4487628979192009
-0.5                      0.25                     1.7500000000000002       -0.5088383177194372      1.2441348621553088       1.5291465152917143
-0.5                      0.18019588139533255      1.7875429785848498       -0.5056761156993675      1.2083051613999685       1.6292127626883783
-0.5                      0.17758104817908105      1.7043023272157818       -0.5069928792232224      1.1285355087524822       1.5501618287260654
-0.5                      0.10631060148838248      1.6545905955011126       -0.504654292490459       1.010743776216611        1.5637795928425124
-0.5                      0.035531221034160745     1.6888886254930788       -0.5013581013985623      0.9712014509648458       1.658460672538025
-0.5                      0.10820724087837158      1.7421551928696406       -0.5037970135291195      1.0935881998091597       1.6482618302811354
-0.5                      0.034167505239874704     1.7837071006351197       -0.5009874545663416      1.0580595114303815       1.7540482007767104
-0.5                      -0.10640249058876494     1.592207709970702        -0.49447818737017585     0.7410690393954039       1.6819999058709154
-0.5                      -0.03513828673161834     1.71935586615623         -0.49854474647209734     0.92875878424242         1.7497002402372888
-0.5                      -0.034966072346528154    1.6413991744402874       -0.4982850970576202      0.8569491471720295       1.6711636586260743
-0.5                      -0.10611344382130276     1.6751340979974163       -0.49537658034517124     0.817212751247736        1.766250979272528
-0.5                      -0.11057413408771173     1.7492966436709196       -0.49598874071379057     0.8814599181275281       1.8454061113647244
-0.5                      -0.1792984598379072      1.7076451696884192       -0.4928074048460516      0.7747633630834131       1.863485563303646
-0.5                      -0.25                    1.6666666666666667       -0.48901761626068546     0.6675470863813894       1.8846605816421447
-0.5                      -0.25                    1.7500000000000002       -0.4909664617804859      0.7441450472630904       1.9709276108412472
-0.5                      -0.17635936882093572     1.6289930152890288       -0.49154650908144415     0.7054895599373877       1.7799678220711639
-0.5                      0.1174731461760842       1.8293430094164966       -0.503142651743088       1.1842865269666343       1.7263350622329179
-0.5                      0.11935648077962199      1.9232452629566557       -0.5020273586218414      1.2742427144652642       1.8180740503507862
-0.5                      0.056741881024224006     1.8677512128080216       -0.501199033520092       1.1594762755849948       1.818126909956233
-0.5                      -0.00805282808194041     1.862113309827944        -0.4996974594077401      1.0893884518410724       1.8692003962613881
-0.5                      0.08333333333333331      2                        -0.5004591686693974      1.309621726828859        1.9267263648211739
-0.5                      -0.053139834470316505    1.7958894803458312       -0.4982744299670521      0.982159688601966        1.8422178264589235
-0.5                      -0.17786635370348694     1.7837648487080626       -0.4941185598061865      0.8467182485034394       1.9400361403001234
-0.5                      -0.11675769163463964     1.8083978493048474       -0.49642316824887783     0.9304056003544081       1.9106270970568335
-0.5                      -0.25                    1.8333333333333335       -0.4927260504412054      0.8213712022040557       2.0564059570773066
-0.5                      0.03492524275572674      1.9252983138527522       -0.5004498816255274      1.191705745244901        1.8947402059128489
-0.5                      -0.04413462784302008     1.930518193471967        -0.49920839445947623     1.1175424050869742       1.9692674433042832
-0.5                      0                        2                        -0.499870340860656       1.225965789810211        2.0000485847670197
-0.5                      -0.08333333333333331     2                        -0.49931312787649906     1.142955173680597        2.073377528352798
-0.5                      -0.25                    1.9166666666666667       -0.49426194307161325     0.8990300296618496       2.1411678737982665
-0.5                      -0.17648492072580216     1.874089157404421        -0.49559439840907793     0.9323725981656895       2.030416095447657
-0.5                      -0.19103219457896936     1.9461008851713737       -0.4964639525906239      0.9854063670648634       2.1161408406406643
-0.5                      -0.08536820050984706     1.868425194883585        -0.4979186591397276      1.018024290176237        1.94333797783191
-0.5                      -0.12322310836370698     1.9387375808243625       -0.4978554523485683      1.0461763968269926       2.047467123744626
-0.5                      -0.16666666666666669     2                        -0.4980697212310336      1.0604428736625993       2.148002518977636
-0.5                      -0.25                    2                        -0.4959683237191986      0.977917305782156        2.225249005874729
0.4457156481625314        -0.25                    0.06231588285580969      0.4322539904252657       -0.2419355581711598      0.07099717264526684