% Model:              block.mph
% Version:            COMSOL 6.3.0.335
% Date:               Apr 23 2025, 14:06
% Dimension:          3
% Nodes:              1222
% Expressions:        3
% Description:        , , 
% Length unit:        m
% X                       Y                        Z                        x+u (m)                  y+v (m)                  z+w (m)
-0.5                      0.12334026554063306      0.058654779297131254     -0.5104615372943813      0.11453547669478502      0.05382927759122506
-0.5                      0.16666666666666663      0                        -0.5                     0.16666666666666663      0
-0.5                      0.08333333333333331      0                        -0.5                     0.08333333333333331      0
-0.5                      -0.033687816529225784    0.06661959115573879      -0.49693668173948485     -0.04604573620832501     0.06830833649499414
-0.5                      0                        0                        -0.5                     0                        0
-0.5                      -0.08333333333333331     0                        -0.5                     -0.08333333333333331     0
-0.5                      0.04507389949456296      0.06573682950521431      -0.5041766723514626      0.03268740852736964      0.06353302610641319
-0.5                      0.19193879173387263      0.052290372929467255     -0.5132268662826677      0.188148142599214        0.044940666328419185
-0.5                      0.25                     0                        -0.5                     0.25                     0
-0.5                      0.25                     0.08333333333333336      -0.5210421187317157      0.24805131429594662      0.07056092179977393
-0.5                      0.08533935595416114      0.1270691817354711       -0.5108830603300553      0.06925771163077972      0.11869641334774488
-0.49999999999999994      0.17452574373538438      0.12441268879082246      -0.5212013095844333      0.1637875753125049       0.10791851419496391
-0.5                      0.25                     0.1666666666666667       -0.5368870628475905      0.24218253994015157      0.14144403313390944
-0.5                      -0.19804351781487872     0.055796016995343756     -0.4860946157737035      -0.20208492894065086     0.06476247911373281
-0.5                      -0.16666666666666669     0                        -0.5                     -0.16666666666666666     0
-0.5                      -0.25                    0                        -0.5                     -0.25                    0
-0.5                      -0.25                    0.08333333333333336      -0.4776952835508239      -0.2519900441670723      0.09629909856099673
-0.5                      -0.11956155883306634     0.07440367369011547      -0.48869118506317955     -0.13045455052079516     0.08167447376997237
-0.5                      -0.18975229969110305     0.12557696847349875      -0.4766143009129074      -0.19967204952125625     0.1435159571897365
-0.5                      -0.25                    0.1666666666666667       -0.46341407081737085     -0.2575871571326757      0.19189781324325986
-0.5                      -0.18111084114483497     0.20553737138791117      -0.4697830452280683      -0.1934937731465398      0.23178556079178206
-0.5                      -0.25                    0.25000000000000006      -0.45325959571501434     -0.256250377824476       0.28817235426847465
-0.49999999999999994      -0.11612917918410198     0.16533049237414554      -0.4825415298413768      -0.1318895107678387      0.17988804919575127
-0.5                      -0.05757098090238943     0.12767843802140566      -0.4922345452565059      -0.07436811840903278     0.13340834099244905
-0.5                      0.00886882303327903      0.13286063698239103      -0.5011557164957529      -0.009065960839973712    0.13191590844808962
-0.5                      0.05311696389661735      0.19888539860225318      -0.5087492338215488      0.03507436328424345      0.19109075881840895
-0.5                      0.25                     0.25000000000000006      -0.5466793214159616      0.24365320418621003      0.2119346829993888
-0.5                      0.17789897447325081      0.21249443370350707      -0.5301710869162192      0.1654269656798687       0.18620148885282226
-0.5                      0.11680420063876108      0.18686714592167664      -0.518626020948157       0.1007959879438887       0.1708820076882135
-0.5                      0.1102783860556873       0.251106837603558        -0.5205905421486113      0.0960995977320399       0.23144891430990164
-0.5                      -0.037132723743444895    0.2067129228287521       -0.4936278391130368      -0.05529633569549757     0.21240894978289246
-0.5                      -0.11127175725402641     0.24994004180098717      -0.4791999476743402      -0.12547595560237126     0.2697668615614491
-0.49999999999999994      -0.17961075371347637     0.2885418249120336       -0.4639459235646601      -0.18762639199586628     0.3233876506916649
-0.5                      -0.25                    0.3333333333333334       -0.44596180506531874     -0.24824582325421907     0.38503857983114115
-0.5                      0.17762583355436273      0.29092707634925374      -0.5357988700470195      0.1696790579727068       0.2562056952758119
-0.5                      0.25                     0.3333333333333334       -0.5539460122068073      0.25174942360162156      0.28164499943370536
-0.49999999999999994      0.033156032894851195     0.2733623225359332       -0.5064732010026446      0.018674066178422346     0.26689126207714026
-0.5                      -0.038173893224196544    0.3032766143970448       -0.49209412013656945     -0.04969658580041337     0.3113687525809717
-0.5                      -0.25                    0.41666666666666674      -0.44029935540017257     -0.23403253466017784     0.482104368629595
-0.5                      -0.1762503252154592      0.37480348042454614      -0.4598203655013546      -0.17311315110313974     0.4184508148105421
-0.5                      -0.10769619256333965     0.33858063056825527      -0.4765232640168801      -0.11313837823633975     0.3635241421428462
-0.5                      0.10085002673908876      0.3242481882795334       -0.5214708613373965      0.09322746388664131      0.30178040554569635
-0.5                      0.03306901429721976      0.35951355199657076      -0.5073335288221079      0.0290042760521512       0.3513811192988961
-0.5                      -0.03850104312508469     0.3937632932563002       -0.4910113647070094      -0.03660942343737219     0.4040690250374908
-0.5                      -0.17623525668995887     0.46102562594159147      -0.45600666907244064     -0.15541894597170883     0.5141775094223119
-0.5                      -0.25                    0.5000000000000001       -0.43544848448021206     -0.21435096806865686     0.5789353967045092
-0.5                      0.1775966678044385       0.3750000000000002       -0.5403755198968115      0.1808383401622866       0.3311207458923757
-0.5                      0.25                     0.41666666666666674      -0.5596651107393541      0.2659419491747413       0.35132789505126283
-0.5000000000000001       -0.10635892927348542     0.42673924548738873      -0.4742630557777567      -0.0963825562494996      0.457071320938263
-0.5                      0.10516188651616018      0.4109719857567985       -0.5249031213192471      0.11185155350599597      0.38206595081667577
-0.49999999999999994      0.03443661712071928      0.44372536354846515      -0.5084258046140174      0.04659990817348661      0.43346041944516106
-0.5                      -0.036138415057592854    0.47746264128504734      -0.4908123745565746      -0.015857660159001138    0.488984985540224
-0.5                      0.1775966678044385       0.4583333333333335       -0.5441303366333613      0.19784948431230062      0.405260371131228
-0.5                      0.25                     0.5000000000000001       -0.5644021390845916      0.28568517720639713      0.4211125355082527
-0.5                      -0.1064463876617158      0.5095459818790911       -0.47225207472949077     -0.07612198802455118     0.5453310932850531
-0.5                      -0.17636566596051276     0.5439320731052355       -0.45283535421653515     -0.133080547178362       0.6061727005680798
-0.5                      -0.25                    0.5833333333333335       -0.4313125302680378      -0.18941529595384057     0.6755567594217454
-0.5                      0.10518557709687718      0.4918801722394196       -0.5269385848865183      0.13069866751538964      0.4577876159513967
-0.5                      0.17759666780443845      0.5416666666666669       -0.5473139345440466      0.22031665283009835      0.47931278017133366
-0.5                      0.25                     0.5833333333333335       -0.5686108413450942      0.31055937760901453      0.4912020006165037
-0.5                      -0.03590024690339028     0.5606624230777318       -0.4902391530437749      0.008033515778992022     0.5739197538287913
-0.5                      0.03356963608812162      0.5264868128436133       -0.5088051260353524      0.0671455555796381       0.5148287937653339
-0.5                      -0.10657898057660001     0.592911214175743        -0.470454413628826       -0.05058622414896676     0.634131413696248
-0.5                      -0.25                    0.6666666666666667       -0.4273966506337536      -0.15978973867021248     0.771654662634453
-0.5                      -0.17691967740957942     0.6272028396633393       -0.4498722826493067      -0.10595819831531317     0.6985731401967189
-0.5                      -0.10657399127271536     0.6763469192971825       -0.4688337466381964      -0.01998462699515502     0.7227466810280374
-0.49999999999999994      -0.176522629917824       0.7108375426951806       -0.4473789534158779      -0.07312762031509946     0.7907620382090892
-0.5                      -0.25                    0.7500000000000001       -0.423884064325277       -0.12549489813943324     0.8671798152694433
-0.5                      0.1775966678044385       0.6250000000000002       -0.5501529906645383      0.24778447636476011      0.5536457117630676
-0.5                      0.25                     0.6666666666666667       -0.5724118846911113      0.3402850205341908       0.5617859033651457
-0.5                      -0.03587436774862901     0.6437195643449041       -0.4896626048706018      0.03674131150771092      0.6587740856032184
-0.5                      0.10510116989496258      0.5751548016104506       -0.5287108940618425      0.1551410173740799       0.5357339167755996
-0.49999999999999994      0.03347922260428255      0.6092354406188324       -0.5093269983956953      0.09354819702031897      0.5959651383827326
-0.5                      0.1051020098898832       0.6592420305289421       -0.5303500309672828      0.18499228385672237      0.6145684949214191
-0.5                      0.1775966678044385       0.7083333333333335       -0.552744499091265       0.28001540850605355      0.6283045448015017
-0.5                      0.25                     0.7500000000000001       -0.5760277786941278      0.37447554304663205      0.6328961278081459
-0.5                      0.03360510635468289      0.6933482500642238       -0.5098540778666772      0.1255501021093162       0.6783786187128243
-0.5                      -0.03587272869632462     0.7270482715220531       -0.4891629467418584      0.07016692294899683      0.7437773498182921
-0.49999999999999994      -0.10650517817119302     0.759638448350318        -0.4673228612785337      0.015199068214331854     0.8110985028394556
-0.5                      -0.17556057307810233     0.795017423606519        -0.44521089253522056     -0.03503326214363969     0.882799023453604
-0.5                      -0.25                    0.8333333333333333       -0.4205606867936043      -0.08698115522006102     0.9620409892783804
-0.5                      -0.17654107012335182     0.8771673903407544       -0.44263994985472715     0.004332462296145173     0.9730753646718838
-0.5                      -0.25                    0.9166666666666669       -0.41725763280712647     -0.04462182383460189     1.0562157775183125
-0.5                      0.10506390042619276      0.7417978963471611       -0.5317749928811302      0.21882878237677003      0.6922018327529221
-0.49999999999999994      0.03370456728581511      0.7759471561819535       -0.5103309997554034      0.16139271560235313      0.759354495445964
-0.5                      0.10504300017883711      0.8252280829025168       -0.5332075439846354      0.2573364145147003       0.7708474319567319
-0.5000000000000001       0.17759666780443856      0.7916666666666666       -0.5551904057810216      0.31667311484792554      0.703303173556577
-0.5                      0.25                     0.8333333333333333       -0.5793632930091555      0.4129879341111467       0.7046743339578838
-0.5                      -0.035863381759697055    0.8103434773683151       -0.48866863950565437     0.10796146324736555      0.8287217206007932
-0.5                      0.03375192374282965      0.8593888569174015       -0.5108209612838513      0.20174045100759655      0.8412903427273032
-0.5                      -0.10570151776941485     0.8432430773355437       -0.4661730220300506      0.05546249227235451      0.8990387908772383
-0.5                      -0.035882005616415996    0.8942604359289308       -0.488178684116988       0.15012714995033974      0.9142009255991924
-0.5                      -0.10614388782123707     0.9261756546598438       -0.46466895464033814     0.09813285774191266      0.9866717395700818
-0.5                      -0.17551077596694112     0.9626471540834421       -0.44068557963438887     0.05115395584300688      1.0654369975802693
-0.5                      -0.25                    1.0000000000000002       -0.4141431166836433      0.001442976632079207     1.1495809233064698
-0.5                      0.10500371948525253      0.9087376267892161       -0.5345371788543223      0.2999013456879211       0.8498595526364249
-0.5                      0.25                     0.9166666666666669       -0.5825564267656782      0.4554410775866719       0.777176158483234
-0.5                      0.1775966678044385       0.9583333333333335       -0.5597791145820717      0.4019395018151844       0.854806859333764
-0.5                      0.25                     1.0000000000000002       -0.5857389990291719      0.5014424312969236       0.8504555933387695
-0.5                      0.17759666780443845      0.8750000000000001       -0.5575355448112171      0.3574173175270245       0.7788192514054156
-0.5                      0.034331816068642385     0.943154710018888        -0.511422466823151       0.24669194129986236      0.9233492104785038
-0.5                      -0.10409249298457061     1.0103656437446995       -0.46401790711521057     0.1475696716635517       1.0738048397110511
-0.5                      -0.1764475664303377      1.0461976884687025       -0.4381715987810381      0.09862135391462162      1.1562530059478835
-0.5                      -0.25                    1.0833333333333335       -0.4111200954328757      0.05085132950569127      1.2421220250008436
-0.5                      -0.03569346682177778     0.9755113363839463       -0.48780785652416503     0.19480911437875534      0.9967048069134136
-0.5                      -0.03527401864946626     1.0578119931475463       -0.48753916373056644     0.24361391732197712      1.0800760556769207
-0.5                      -0.10399037214721053     1.0917605431514563       -0.4628560062377581      0.19676172675408266      1.1587726224708395
-0.5                      -0.033329717652215846    1.140313430919057        -0.48782730635643673     0.2971890983039307       1.1624954114330681
-0.5                      0.10476906910099176      0.9923692931416438       -0.5357881536554586      0.3460195466920521       0.9294319792690348
-0.5                      0.034349910523257365     1.1091119745145124       -0.5122840770390377      0.3450039909178458       1.086742396276701
-0.49999999999999994      0.033290332486715035     1.0246943219569107       -0.511483702064044       0.292323907488095        1.004199923257062
-0.5                      0.10100542412815589      1.0761864213913235       -0.5357092522769317      0.3920840141185948       1.0117434886985384
-0.5                      0.1775966678044385       1.041666666666667        -0.5619574778829017      0.4499926370643796       0.9313038202104575
-0.5                      0.25                     1.0833333333333335       -0.5887803646953756      0.5508400032962218       0.9246006644361234
-0.5                      0.1775966678044385       1.1250000000000002       -0.5640943279443978      0.5013082996242902       1.0084981910008717
-0.5                      0.25                     1.166666666666667        -0.5916707732160033      0.6033555955911725       0.9995196132373573
-0.5                      0.17759666780443853      1.2083333333333335       -0.5661687115403221      0.555514467667626        1.0861908364776227
-0.5                      0.25                     1.2500000000000002       -0.5945784770711916      0.6585530231471503       1.075350525903846
-0.5                      0.10139842737882665      1.1594855289954675       -0.5370922212603025      0.4452130935367346       1.0914060213763472
-0.5                      0.10175128743897877      1.242609524816578        -0.5383812975734129      0.5009821180487738       1.1713032660195768
-0.5                      -0.25                    1.166666666666667        -0.4081596854559333      0.10333127747982684      1.3338540129428038
-0.5                      -0.17687475084082208     1.1286712586018797       -0.43593283310996694     0.14910867080627457      1.2450365396356353
-0.5                      -0.10401297060707398     1.1738203617150995       -0.4616431151511266      0.24919004815109647      1.2442404291526765
-0.5                      -0.1770671822037969      1.2108335152302832       -0.4338567235541067      0.20249418524045762      1.3327460586138296
-0.5                      -0.25                    1.2500000000000002       -0.4053082769377971      0.15855573707545545      1.4246713636574773
-0.5                      0.17759666780443845      1.291666666666667        -0.5681770886619999      0.6123579994396612       1.164564250191054
-0.5                      0.25                     1.3333333333333337       -0.5973334682292221      0.7163023919650877       1.1520956531736992
-0.5                      0.1018337016438744       1.3257616696508356       -0.5395141163784568      0.5590113295206746       1.2517288788486816
-0.5                      0.03418738094612178      1.2754521205311213       -0.5130126800886973      0.45529535128474974      1.2511247819414544
-0.5                      0.03451529297804351      1.1919700174997163       -0.5127409761083527      0.3988329436404637       1.168401633246944
-0.5                      -0.03335096011705255     1.223825934777368        -0.48744522747933555     0.3523340181522052       1.2470074435831722
-0.5                      -0.10404281323878531     1.2573514413655018       -0.460454127143001       0.305300849063948        1.3308442035666888
-0.5                      -0.17584057962398705     1.2941542264374533       -0.4323180535388995      0.2606036290566012       1.4201480105529811
-0.5                      -0.25                    1.3333333333333337       -0.40260993973233905     0.2163186635027801       1.514626470169399
-0.5                      -0.03553862590928791     1.3086809173031462       -0.4862155789224663      0.408859837816056        1.3343523691937735
-0.5                      -0.25                    1.416666666666667        -0.39995529373463934     0.27620084842421994      1.6035696177367587
-0.5                      -0.1774943921837701      1.3783348431881064       -0.4298279889284218      0.31888631357846503      1.5097451302298397
-0.5                      -0.10484911232251876     1.3427719473539657       -0.45895849157644203     0.3645113626337853       1.4194913294624563
-0.49999999999999994      -0.10653577361820914     1.4246247963608476       -0.4572510843677678      0.42249051668481913      1.5048613453330866
-0.5                      -0.17707133112369694     1.4612064311854747       -0.4282459203894033      0.38031515025092527      1.5958602939173578
-0.5                      -0.25                    1.5000000000000002       -0.3975894875046038      0.3380761498158856       1.69155032190713
-0.5                      0.03302509733811587      1.3587183312561955       -0.512926979811419       0.5131940459831864       1.334402009519325
-0.5                      -0.03441704411745067     1.3925793048628048       -0.48630951099065917     0.47040813162214784      1.4182441614353858
-0.5                      0.1775966678044385       1.3750000000000002       -0.5700574424757768      0.6715640621358906       1.2436561722393147
-0.5                      0.25                     1.416666666666667        -0.599931116739068       0.7762626778901912       1.2297778585996688
-0.5                      0.03424383649351226      1.441866242115406        -0.5137615296016794      0.5755403026982525       1.4159494551924483
-0.5                      0.17759666780443853      1.4583333333333335       -0.571869666374856       0.732859540128446        1.3234272003355088
-0.5                      0.25                     1.5000000000000002       -0.6023806513798545      0.8381009941251628       1.308442944081717
-0.49999999999999994      0.10152289646808071      1.4088083430533334       -0.5404966594419579      0.6188408251273851       1.3327326820467438
-0.5                      0.10258989401388985      1.4931232441781939       -0.541927418413763       0.6829429288053755       1.414362192951124
-0.5                      0.1775966678044385       1.5416666666666667       -0.5734878735420482      0.7959411044290058       1.4039038298166409
-0.5                      0.25                     1.5833333333333335       -0.6045542993505971      0.9015591695230946       1.3881037448401885
-0.49999999999999994      0.03447856902327823      1.525353432429497        -0.5141964831113331      0.638998463886664        1.4986684936794055
-0.5                      -0.035438967063984084    1.558162458494731        -0.485272572375604       0.5943544571217068       1.5857624644169908
-0.5                      0.03412569246402662      1.6086749722912874       -0.5143558837574685      0.7032861706306658       1.5818541732847355
-0.49999999999999994      -0.10583792766310034     1.50861691640331         -0.4565464920859749      0.4863372472006166       1.5901363353018338
-0.5                      -0.17793049374158953     1.5439487471504683       -0.42630304793785995     0.4421435025217098       1.6820880161331957
-0.5                      -0.25                    1.5833333333333335       -0.3954634094413805      0.4015738045155071       1.7785796199706565
-0.5                      -0.03553008718265013     1.474490933408319        -0.4855246181479828      0.5302578245457715       1.5016508978587308
-0.5                      0.10257958372703634      1.5745546169715336       -0.5427766416848759      0.7454564700107524       1.4944059972788606
-0.5                      0.18867214260627357      1.8712682655537167       -0.5818259835747766      1.0681628522423179       1.7199216526281165
-0.5                      0.25                     1.9166666666666667       -0.6085751787780748      1.1661293283762275       1.7158933398092395
-0.5                      0.25                     1.8333333333333335       -0.6084463257676324      1.099019248391967        1.6327861971277857
-0.5                      0.19468302675152505      1.936198929518678        -0.5843709044335228      1.126579264159158        1.7799698412123743
-0.5                      0.25                     2                        -0.6082707299422152      1.2332459567000527       1.799299571006685
-0.5                      0.16666666666666663      2                        -0.5719245639492936      1.1499873026840257       1.866350090360725
-0.5                      0.17564833320777126      1.6176509465849755       -0.5739829060512794      0.8527966561720254       1.4794125259639985
-0.5                      0.25                     1.6666666666666667       -0.6063200834089567      0.9664554047595476       1.4687491683378555
-0.5                      0.25                     1.7500000000000002       -0.6076524329685221      1.0323757952971133       1.5503230283717684
-0.5                      0.18019588139533255      1.7875429785848498       -0.5778376485607045      0.9922099784506545       1.643270781584216
-0.5                      0.17758104817908105      1.7043023272157818       -0.5759359493657462      0.9230673299123179       1.5629820004269748
-0.5                      0.10631060148838248      1.6545905955011126       -0.545097994950069       0.8119371577714087       1.570436725894442
-0.5                      0.035531221034160745     1.6888886254930788       -0.5151977007253298      0.7681256496213272       1.6606555539654686
-0.5                      0.10820724087837158      1.7421551928696406       -0.5465071491547854      0.8835538450183255       1.6558200246722679
-0.5                      0.034167505239874704     1.7837071006351197       -0.5148131853511914      0.8428090986067122       1.7563652544151385
-0.5                      -0.10640249058876494     1.592207709970702        -0.45544618208321913     0.550202584366423        1.6755763457590727
-0.5                      -0.03513828673161834     1.71935586615623         -0.4850078830187967      0.7217647443885978       1.7473253182086694
-0.5                      -0.034966072346528154    1.6413991744402874       -0.4852435530077189      0.659953546645558        1.6690012072260745
-0.5                      -0.10611344382130276     1.6751340979974163       -0.45489856320387206     0.6157528300047029       1.7592874811325319
-0.5                      -0.11057413408771173     1.7492966436709196       -0.45255826941201677     0.6705042994298727       1.8375485762406438
-0.5                      -0.1792984598379072      1.7076451696884192       -0.42335863680044156     0.5688134413239209       1.8503606354830324
-0.5                      -0.25                    1.6666666666666667       -0.3936918414710396      0.4664229419992873       1.8646079452189375
-0.5                      -0.25                    1.7500000000000002       -0.3924131440837911      0.5323278026272066       1.9496477653873228
-0.5                      -0.17635936882093572     1.6289930152890288       -0.4255946053261043      0.5096520427370419       1.7680233650233628
-0.5                      0.1174731461760842       1.8293430094164966       -0.5508518968275341      0.9630492234442743       1.7352333154583521
-0.5                      0.11935648077962199      1.9232452629566557       -0.5516537872161007      1.0408495401514573       1.827528515708453
-0.5                      0.056741881024224006     1.8677512128080216       -0.5246365703261786      0.9333422209666493       1.8222659335259792
-0.5                      -0.00805282808194041     1.862113309827944        -0.496648107626076       0.8639868637029174       1.8685370023757837
-0.5                      0.08333333333333331      2                        -0.535912449671765       1.0667353744600447       1.933256490163753
-0.5                      -0.053139834470316505    1.7958894803458312       -0.4771808235120752      0.7653210697065775       1.8383798397628917
-0.5                      -0.17786635370348694     1.7837648487080626       -0.42333188732106636     0.631072719135314        1.926077089430173
-0.5                      -0.11675769163463964     1.8083978493048474       -0.4496901366683234      0.711869375266954        1.901865712290761
-0.5                      -0.25                    1.8333333333333335       -0.3917172768339429      0.5989937777165092       2.0338461676879445
-0.5                      0.03492524275572674      1.9252983138527522       -0.5152039359912283      0.958151942859775        1.8973047564485623
-0.5                      -0.04413462784302008     1.930518193471967        -0.48115963420432956     0.8833045239827532       1.9658406547223743
-0.5                      0                        2                        -0.5002017956454883      0.9834367946326094       1.9999697733518487
-0.5                      -0.08333333333333331     2                        -0.4644930533877348      0.9000523376044608       2.066675006750286
-0.5                      -0.25                    1.9166666666666667       -0.39167534334607224     0.6660931861136016       2.11737626562244
-0.5                      -0.17648492072580216     1.874089157404421        -0.4236961335158692      0.7052373556748834       2.015609647784343
-0.5                      -0.19103219457896936     1.9461008851713737       -0.4175456211448684      0.7488198306415746       2.099335349288438
-0.5                      -0.08536820050984706     1.868425194883585        -0.46325163695655425     0.7917891510396423       1.936809487114159
-0.5                      -0.12322310836370698     1.9387375808243625       -0.4470001257973744      0.810758590733547        2.0374784391132876
-0.5                      -0.16666666666666669     2                        -0.4284481003854688      0.8166219438318852       2.133573757327515
-0.5                      -0.25                    2                        -0.39206001259324935     0.7332107769802575       2.2006465381992615
0.4457156481625314        -0.25                    0.06231588285580969      0.43289455197177495      -0.23686993643366727     0.07436487243340932