% Model:              cylinder.mph
% Version:            COMSOL 6.3.0.335
% Date:               Apr 23 2025, 11:25
% Dimension:          3
% Nodes:              1264
% Expressions:        3
% Description:        , , 
% Length unit:        m
% X                       Y                        Z                        x+u (m)                  y+v (m)                  z+w (m)
-0.321393712601196        -0.38302229895976014     0                        -0.321393712601196       -0.3830222989597602      0
-0.3535533905932809       -0.3535533905932665      0.07637075547791561      -0.4153582513838507      -0.4182849403944588      0.02873719917250871
-0.3830222989597601       -0.321393712601196       0                        -0.3830222989597601      -0.321393712601196       0
-0.4074852695619796       -0.2897511951485288      0.07241548992287883      -0.4778055754912223      -0.3402864313843099      0.030245822903189713
-0.4330128608870344       -0.24999972461269993     0                        -0.43301286088703445     -0.24999972461269993     0
-0.45038880134256565      -0.2171403408517332      0.06946668483866336      -0.5287744536934403      -0.2536571570546233      0.028435004712600975
-0.4698464397831369       -0.17100971616581065     0                        -0.46984643978313684     -0.17100971616581065     0
-0.13006182987812964      -0.4827876556093294      0.06187914442846676      -0.15088065491181776     -0.5599656474458921      0.02297304813813693
-0.1710097161658105       -0.469846439783137       0                        -0.1710097161658105      -0.469846439783137       0
-0.0868158021507391       -0.49240533759995303     0                        -0.0868158021507391      -0.49240533759995303     0
-0.05918846175811519      -0.4964843663144976      0.054758509659567745     -0.06829608501518354     -0.5714235415780899      0.020732795256027975
0                         -0.5                     0                        0                        -0.5                     0
-0.24999972461269973      -0.43301286088703445     0                        -0.24999972461269973     -0.43301286088703445     0
-0.2866514053582683       -0.4096717854650595      0.07638758179624472      -0.33645934071574407     -0.48220240741773507     0.026978537417950633
-0.21245288809096488      -0.4526187914148153      0.07378897469206737      -0.2511348123631461      -0.5328709183077991      0.029764075108779292
-0.32303536376950304      -0.38163877391363793     0.15504368673765256      -0.4033244011741051      -0.4764133762271095      0.07085854993124861
-0.07908121832470945      -0.4937065534386592      0.1322436923941197       -0.09660602501298599     -0.6076254357580358      0.05969816289924747
-0.17522246916715345      -0.4682916679794399      0.138162585811201        -0.2176244376150516      -0.5795344592105452      0.06349013477733449
-0.4970756029579413       -0.05399856427720228     0.05861155686907105      -0.5708501081948351      -0.06225133608983929     0.022823606980547695
-0.5                      0                        0                        -0.5                     0                        0
-0.492405337599953        -0.08681580215073931     0                        -0.4924053375999529      -0.08681580215073931     0
-0.5                      0                        0.08695652173913046      -0.5939180935820806      -3.518530254002649E-4    0.03505480613316239
-0.48160450327403614      -0.1343767183189445      0.07872435030452607      -0.5690533480618732      -0.1573661275001528      0.031264770962509854
-0.49615394715897676      -0.061897178599410116    0.13005691245641537      -0.6096891807500163      -0.07590305112086852     0.05682506699088357
-0.3810037402361111       -0.3237841100580663      0.14726629292934024      -0.47341577049560496     -0.4029798278489654      0.06889230521685225
-0.42993510192057277      -0.25525635768095317     0.1373787749470068       -0.5316762731757021      -0.31547121748207824     0.06225896601443106
-0.4096965207094093       -0.28661605139734336     0.19966885002183798      -0.520528337480792       -0.36372085488901035     0.09526295768518107
-0.48057930860578024      -0.13799829035169306     0.17496000875852236      -0.6051477965972553      -0.17286941712025616     0.08227994907625578
-0.46003805141679416      -0.1958698324108108      0.1320485988959721       -0.566725935152251       -0.24124071603266667     0.061211100896304105
-0.3610104963654019       -0.3459355742244589      0.23309918148576236      -0.4633144239390803      -0.4440927834792232      0.1118070607406876
-0.13325880718152214      -0.48191502394982244     0.20127096105164677      -0.16937554203836339     -0.6125237164914371      0.09594659384300068
0                         -0.5                     0.08695652173913046      -4.0778639381788015E-5   -0.594778461388323       0.03714032974097719
-0.2518846947542589       -0.4319190902802906      0.14843626406197719      -0.3123002949352818      -0.5387375275284444      0.06704517162358738
-0.21036443406970146      -0.45359321520337376     0.22928690007197028      -0.26985937999070136     -0.5821510746930159      0.10903021250647618
-0.292850914403263        -0.40526329951424517     0.23148968558889452      -0.3755438570045866      -0.5201270821015404      0.11112991146245514
-0.3296460243100733       -0.3759434780077486      0.31760382525363773      -0.4293308590011059      -0.4896357837929076      0.15219369607715535
-0.13575530156539528      -0.4812177242131555      0.2670677832044679       -0.1755702018934642      -0.6220760267025219      0.1284089829269057
-0.19236489347250166      -0.46151462355955        0.305017430259255        -0.2502083532834089      -0.6000578510802843      0.1463059964237919
-0.07138110133386355      -0.4948785086992206      0.22264561255639415      -0.0913947752509402      -0.6330234921367853      0.10596392305540248
0                         -0.5                     0.17391304347826092      4.894832315808104E-4     -0.6287671481846395      0.08148810718821663
-0.07586637425010088      -0.494210778168732       0.3035312237889047       -0.09866175208807525     -0.6423564064178006      0.14559263948345783
-0.5                      0                        0.17391304347826092      -0.6298694814099247      -4.7575436984122844E-4   0.08188840430118575
-0.4943538666962613       -0.07492832897145753     0.21726883150809467      -0.6320103799790421      -0.09558931116708437     0.10411611248938013
-0.4494868447583954       -0.21900131595299197     0.21772487907175211      -0.5742887260859614      -0.2796000407970504      0.10449499500313374
-0.41308315227643877      -0.28171316849831585     0.27022400109137523      -0.5340297483329869      -0.3641894020342715      0.13012651436284228
-0.47793707335134766      -0.14688823614009577     0.2625131499658224       -0.6174604165246076      -0.1895068282380092      0.12629248863230888
-0.49418419431827654      -0.07603934564418455     0.30434782608695654      -0.6426131376469363      -0.09879759960515654     0.14608960755076292
-0.4506502037848151       -0.21659730799043803     0.3065967547875          -0.5861921238282725      -0.28154380009891083     0.14715769238292256
-0.3810649707680368       -0.3237120449621164      0.31349301525468554      -0.4959162151887545      -0.42138334021590945     0.14999767601244948
-0.41428838262509265      -0.2799377359733497      0.3512943300963718       -0.5412547943397038      -0.3657287241856628      0.16734419009702298
-0.2552099909872357       -0.42996262686458586     0.3014812976325071       -0.3317014991149922      -0.5589240250930407      0.14470769571983466
-0.278427611870338        -0.41530478560712536     0.3660234490111775       -0.3642369316136054      -0.5432641644636842      0.17352259198651387
-0.3159784293988584       -0.387501783421226       0.3965336577310153       -0.41414038485643434     -0.5078688478488126      0.18691422797715124
-0.36632687796125174      -0.3403007764950915      0.3961048252179292       -0.4801957141917934      -0.44596707276685355     0.18663780540800032
-0.21727650265066087      -0.45032312998101426     0.37809273406151306      -0.284543314012055       -0.5895495290467018      0.17904264109525506
-0.1431100220633556       -0.4790819570647864      0.3478683300011435       -0.18706291392186736     -0.6258307059659954      0.16573118871620204
0                         -0.5                     0.26086956521739135      5.4542002913502665E-5    -0.645610210889424       0.12560857164886755
0                         -0.5                     0.34782608695652184      -9.278686756605108E-5    -0.6531420817973154      0.1656280237913341
-0.1498497239377459       -0.4770168343316421      0.4296342642737092       -0.1967516013741625      -0.6261236000928965      0.20074365897099275
-0.07590215078579098      -0.49420528478162906     0.3891946802146331       -0.09954375853936158     -0.6474289577110836      0.1837685374314242
-0.5                      0                        0.26086956521739135      -0.6456771196167209      9.631212955166014E-5     0.12561384404449252
-0.5                      0                        0.34782608695652184      -0.6531266392427321      8.901502919325806E-6     0.1657088211293274
-0.49419033556011366      -0.07599942262268991     0.3913043478260871       -0.6476157159158838      -0.09951829376092795     0.18461498082270647
-0.4768704729359274       -0.15031484305239085     0.34786230081504105      -0.6229815199730444      -0.19623644780908933     0.16566677963860343
-0.450589115086603        -0.2167243626486696      0.3934153124646596       -0.5905315851625903      -0.2839198832683258      0.18551676938971343
-0.4155870909755089       -0.27800606075140544     0.43903515176381797      -0.5457142627031102      -0.3649378393238643      0.20463441777198718
-0.2713725571910704       -0.41994872925582144     0.4306620195746084       -0.3563204642595142      -0.5511705556973542      0.20119568019245673
-0.32932725425188175      -0.37622275264385124     0.46501988455307136      -0.4327880116762462      -0.4942862788180797      0.2152859090238799
-0.37487084659663117      -0.3308653024599662      0.48770533164952096      -0.4928207420010445      -0.434893411653036       0.2244462911605727
-0.21585120643948236      -0.451008045026494       0.465530384906924        -0.2837205429141734      -0.5926287029952676      0.21552002342562515
-0.1491111785319902       -0.4772482126072353      0.5186428232354194       -0.19620661499410932     -0.6275623971449212      0.23675011803630497
0                         -0.5                     0.43478260869565233      -5.53633322419508E-5     -0.6563680447733914      0.20293740304498928
-0.07601059835859304      -0.49418861676203013     0.4782608695652174       -0.0999742065459177      -0.6494782477521693      0.2206348029503439
-0.4768765226127628       -0.15029564924095126     0.43476527151967115      -0.6261178461669976      -0.1972610607499425      0.20285969671618118
-0.45217464356424336      -0.2133965597603426      0.4791896183263029       -0.5943965558170606      -0.280426183057858       0.22105078753980292
-0.5                      0                        0.43478260869565233      -0.6565007862660687      6.508496663496691E-5     0.20290283897721825
-0.49418739624314856      -0.07601853322984684     0.4782608695652176       -0.6496168863498418      -0.09985757885328016     0.22065790340816457
-0.4781095052737238       -0.1463260091949312      0.5219558304975654       -0.6288837681559908      -0.19237815416871903     0.23805918379589366
-0.5                      0                        0.5217391304347827       -0.657681319792537       5.763964852473722E-5     0.23798156015124453
-0.4195019267623456       -0.27206273806363057     0.5245576383093271       -0.5517995348298542      -0.35777452334735577     0.23909262584980628
-0.4536750982711027       -0.2101877855839993      0.5662890761083424       -0.5968763235419036      -0.2764429122302285      0.25538403221652545
-0.42060934655889676      -0.27034751263382817     0.6154674934580457       -0.5533567756425501      -0.3555892057722185      0.2742108025268974
-0.27647885694040564      -0.41660465871726243     0.5142369293051197       -0.3636442919604124      -0.5478412329562711      0.2350472851724428
-0.2159222780540077       -0.450974023464731       0.5563123705672037       -0.28413064948056416     -0.5931447494772978      0.25148773215782927
-0.37748641825228374      -0.32787803225446793     0.584125867844155        -0.4966076095903727      -0.43124530737362193     0.26224136613683485
-0.3298932189770742       -0.375726581536287       0.5591907464651638       -0.4340339804125805      -0.49418385482945076     0.25260287482973925
-0.07602093423608111      -0.49418702690163097     0.5652173913043478       -0.10007069531768419     -0.6500257435047208      0.25493714829955927
-0.1502786679567483       -0.4768818742174475      0.6086852053471883       -0.19778172049368978     -0.6272474222990425      0.27161468275942463
0                         -0.5                     0.5217391304347827       -6.071790893014803E-5    -0.6575372939858811      0.2379548422459887
0                         -0.5                     0.6086956521739131       -1.5498911001879859E-4   -0.6576838867204654      0.2716889965524958
-0.4522118338519003       -0.21331773795046044     0.6486201973120459       -0.5948549561335418      -0.28050742719597793     0.28673622127645465
-0.49418739624314845      -0.07601853322984681     0.5652173913043478       -0.6500913229391688      -0.09993775895593925     0.25490301093423534
-0.47781366756867716      -0.14728916825269153     0.6066584536759225       -0.6286410064166333      -0.19370778015950527     0.2708283653944252
-0.4941901877245591       -0.07600038392511639     0.6521739130434784       -0.6500833781263379      -0.0999127962025133      0.28807744853867195
-0.5                      0                        0.6086956521739131       -0.6577972374438521      4.9131907656845186E-5    0.271590653678119
-0.47859762245816323      -0.1447215111080366      0.6968470700534511       -0.6294085002835107      -0.19026680792839132     0.30477639795137884
-0.4941854622394696       -0.07603110489241746     0.7391304347826089       -0.6497513302924326      -0.09991864641980208     0.320506004032199
-0.3888746062796066       -0.31428735353316556     0.6535382876878058       -0.5115393694918586      -0.41328938403663623     0.2886377843119641
-0.41953092665871855      -0.2720180170078388      0.688865310348699        -0.5517904759702911      -0.3576491159325271      0.3018278746428363
-0.37898182312005907      -0.32614839834743364     0.7249764358874204       -0.49835294778646727     -0.4287619188282545      0.31525864806036025
-0.34032113732295843      -0.36630796263691584     0.6540406246940221       -0.4476902300940058      -0.48172505887034506     0.28879070560384873
-0.2779498083405974       -0.4156247153904893      0.6029536430999737       -0.36573513603818997     -0.5467145738808313      0.26942584366444433
-0.2784782330421995       -0.41527084381364215     0.6945226078744948       -0.36629883671177565     -0.5460446656878838      0.3039272038806687
-0.21688117767960832      -0.45051365658357817     0.6498648334518836       -0.2853751093941153      -0.5924788380750066      0.28717627182131
-0.07603244435206938      -0.49418525615992387     0.6521739130434783       -0.10011505049643188     -0.6499236668117313      0.2880806075382569
-0.15025048032161797      -0.4768907560051076      0.6956820591140966       -0.19770130491757662     -0.6270585440703985      0.30435643399337003
0                         -0.5                     0.6956521739130436       -1.3218304354384227E-4   -0.6574479593688802      0.30435627318403874
-0.45345051632135214      -0.21067185205408712     0.7357558491684258       -0.5962114737267505      -0.276918578863937       0.3192293995158782
-0.42020013415165713      -0.2709831124976781      0.7786986813307507       -0.5523756135306462      -0.3561294922799481      0.3350822746730197
-0.4768816196055854       -0.1502794759185487      0.7825959470113356       -0.6268466881250324      -0.19749023960572124     0.33650083277874043
-0.4941833013095587       -0.07604514913382694     0.8260869565217394       -0.6494602424180124      -0.0999149010754951      0.35247690388677816
-0.5                      0                        0.7826086956521741       -0.6572413108400769      5.215575535265719E-6     0.3365280387905283
-0.5                      0                        0.6956521739130436       -0.6575484167199042      6.530139322033656E-6     0.30434956691714427
-0.4525349384471844       -0.21263144048941363     0.8225847138739129       -0.5947533343751304      -0.27938156353231064     0.3511847735342786
-0.3300343291869217       -0.3756026378476842      0.7468905647743912       -0.4339448132517232      -0.49371490928842515     0.323326403676452
-0.36753000394182594      -0.3390010268458217      0.8260753229148144       -0.483041544665928       -0.44542836983970513     0.35245233163329026
-0.213103065678612        -0.4523130369538083      0.7416694428913402       -0.2802526118754996      -0.594580958603469       0.3214613331153084
-0.27118855370964323      -0.42006757591710403     0.7853934196196917       -0.35653726974645306     -0.5520613658392141      0.337528420869356
-0.3149985522067567       -0.3882987408010064      0.824940150035328        -0.4140341585648544      -0.5102074604923252      0.35206698078888576
-0.14973895425061878      -0.4770516173119331      0.7794621651275456       -0.19691608010792885     -0.6269723240437549      0.33538051545125996
-0.5                      0                        0.8695652173913044       -0.6569896644322041      1.2612604237704958E-5    0.36836962066731926
-0.07599952523172092      -0.4941903197802978      0.7391304347826088       -0.10002768373983904     -0.6496352875408203      0.32048796978551125
0                         -0.5                     0.7826086956521741       -1.2368749036664435E-4   -0.6571245373047406      0.3365018696671165
-0.07604514913382708      -0.4941833013095586      0.8260869565217392       -0.1000410717956114      -0.6493450234420869      0.3524702380641196
-0.2135209865576088       -0.4521159014008083      0.825765821341105        -0.2806948537324003      -0.5940590762586703      0.3523469175685035
-0.27155461730414754      -0.4198310253194705      0.8612053012741273       -0.35688309601320967     -0.5515644536803141      0.3653153278278593
-0.3281560333866556       -0.3772447716694509      0.8926512235635905       -0.431214750436352       -0.49556252623006086     0.37678154114360934
-0.41450396932280664      -0.27961841751865657     0.8718084430486541       -0.5446778132074828      -0.36733187416078744     0.3691678699517509
-0.45102651302782526      -0.21581261442733363     0.9122297077907037       -0.5925918679463765      -0.28347571617872774     0.38391587795608806
-0.47686319097347374      -0.15033794296383163     0.8695652173913042       -0.6266022953864391      -0.19748224020174046     0.36836906953453846
-0.47688037067784583      -0.15028343908149147     0.956521739130435        -0.6265210729398465      -0.19739675666571913     0.40003512847543293
-0.4941833013095586       -0.07604514913382708     0.9130434782608696       -0.6492770226612214      -0.09989160522633568     0.38420854929326986
-0.4525030489890883       -0.21269929632130613     0.9990315478174371       -0.5945095063828956      -0.279383579317511       0.4155060578094068
-0.47688037067784583      -0.15028343908149147     1.0434782608695656       -0.6265738124755287      -0.19740934277612354     0.43166624999395026
-0.5                      0                        0.9565217391304349       -0.6568913443352682      9.371900932353577E-6     0.40004756521515805
-0.14671282249994375      -0.4779909494060531      0.8662711996398536       -0.19286949530365452     -0.62797437809264        0.3671560674005881
-0.41818696847963244      -0.2740796588472316      0.959801046653896        -0.5494280248128921      -0.3600014817757382      0.40123064310633744
-0.3756540272906042       -0.3299758351460755      0.9170942449401381       -0.4935713078510638      -0.4334472453112941      0.38569693271874805
-0.37682478761311883      -0.32863821968895807     1.00927686357295         -0.4951090660784739      -0.43168897258657973     0.4192152114782602
0                         -0.5                     0.8695652173913044       -1.1562970860088156E-4   -0.6568856820013744      0.36836854687235027
-0.07604514913382708      -0.4941833013095586      0.9130434782608696       -0.10001208203576546     -0.6491700768771881      0.3842096451293555
-0.21554834546310822      -0.45115286851367414     0.9098669872660917       -0.2832753699743982      -0.5926346546722585      0.38305228848259576
-0.27566016590461223      -0.4171468241919644      0.9457031806355718       -0.3622056691543158      -0.547938411465109       0.39609541100453377
-0.32986615451952706      -0.37575034278427416     0.9783834096844144       -0.43341259363972817     -0.4935635111908953      0.4079939928168464
-0.4941833013095586       -0.07604514913382698     1.0000000000000002       -0.6492521873678657      -0.0998830238361811      0.4158420442860318
-0.5                      0                        1.0434782608695654       -0.6569530611851487      1.65962335922809E-5      0.4316516651848828
-0.4941833013095586       -0.07604514913382708     1.0869565217391306       -0.6493864342777015      -0.09989584046475809     0.4475032755261408
-0.45180155472494105      -0.21418532897499318     1.0847370887758319       -0.5937038287167384      -0.28140701487726916     0.44665917427825613
-0.41837553992714693      -0.27379172301344        1.0501326591052957       -0.5497303480316659      -0.35966248649036214     0.43406658130899917
-0.4768631909734737       -0.15033794296383166     1.1304347826086956       -0.6267647279493564      -0.19755659707539427     0.46330023024388917
-0.3789223256735762       -0.32621752115134506     1.1040752338744733       -0.4979916647137362      -0.42863868460403404     0.45369477795191065
-0.14710297994778665      -0.477871021605706       0.9554109513197245       -0.19334458870897353     -0.6277056370933902      0.39962669751731245
0                         -0.5                     0.9565217391304349       -1.2228113293933694E-4   -0.6567789117826615      0.40003738239177267
-0.3291769274414883       -0.3763542884572742      1.0653839394079256       -0.4325707458828953      -0.49442544769581503     0.4396052910526977
-0.5                      0                        1.1304347826086958       -0.6571787489487427      2.4928588317319942E-5    0.46330509557994687
-0.4941833013095586       -0.07604514913382708     1.173913043478261        -0.6497221018183952      -0.09997870315786822     0.4791634381948578
-0.07604514913382698      -0.4941833013095586      1.0000000000000002       -0.10000836355190242     -0.6491413055145839      0.4158442223121374
-0.21523781954734625      -0.451301097978394       0.9976586575324374       -0.2828433389684088      -0.5928109665020455      0.4149975059913798
-0.2768924429160584       -0.4163298872960927      1.0334983193133918       -0.36384481504620597     -0.5468921735060296      0.42803213298703463
-0.21527843566885838      -0.451281724797237       1.085777514184782        -0.2829544328275249      -0.5929212283216695      0.4470336306070357
-0.2762555479922504       -0.41675277108077097     1.1210108515922237       -0.3631354406807374      -0.5476498307874555      0.4598661623850355
-0.47688037067784583      -0.1502834390814914      1.2173913043478264       -0.6272292397913276      -0.1976279702413117      0.4950975633366239
-0.45128897021423253      -0.21526324666086746     1.171808078209882        -0.593341843030209       -0.28296456385602853     0.4783977296209219
-0.4517791550043987       -0.21423257246159252     1.2598000724854175       -0.5944884507084773      -0.281851726473209       0.5106937745067782
-0.3314071990702603       -0.37439186476792574     1.1586727524969822       -0.43570925030130253     -0.4920975796713772      0.47360218097982537
-0.3769736416117935       -0.3284674619044376      1.1917783425081572       -0.49573229511904365     -0.4318366534518307      0.48569555497139877
-0.41784321426331233      -0.2746034382415916      1.1376784380504894       -0.5492441903206364      -0.3608880856695466      0.46593972868768957
-0.41748332974670527      -0.27515026691537803     1.2240690000190375       -0.5491627590331224      -0.36186592912011095     0.49754266760828
-0.3303418449129852       -0.37533220685079133     1.245198942637329        -0.4346332945308213      -0.4937253347526401      0.5053105157886807
-0.3766800445561411       -0.3288041119468908      1.2785868855925449       -0.49579227090258454     -0.43267086835484797     0.5176194465586345
-0.27602559412271205      -0.4169051107736673      1.211356847816944        -0.3630744541365034      -0.5482306928922975      0.4928663005198102
-0.21420204631023843      -0.4517936291676837      1.1731962377778429       -0.28168164128271517     -0.5939053492955133      0.47889909511685147
-0.15028343908149147      -0.47688037067784583     1.0434782608695656       -0.19753465705422338     -0.626460657609937       0.43164792907179433
0                         -0.5                     1.0434782608695654       -1.1528125792017659E-4   -0.6568385227940475      0.43162555115163315
-0.15033794296383157      -0.4768631909734738      1.1304347826086958       -0.19768277825354438     -0.6266793733038242      0.46328699649313604
-0.07604514913382698      -0.4941833013095586      1.0869565217391306       -0.10002991837672771     -0.6492943200927385      0.4474473387517292
-0.3304320858357325       -0.3752527636810248      1.3328189657648388       -0.4352194833279128      -0.494114959967086       0.5378285631496994
-0.377508313890871        -0.32785282207611327     1.3682938113129672       -0.4974421144662098      -0.431910408590141       0.5511816089892942
-0.41780658361512363      -0.27465916822101294     1.3126743954853923       -0.5501361248908737      -0.36156728069379235     0.530322876688727
-0.41727435333406293      -0.2754670834231191      1.3986893720928002       -0.5500308712751357      -0.3630782733706663      0.562782732824605
-0.45208840232033765      -0.21357920424855162     1.3475574802457295       -0.5954924838841026      -0.2813137045037644      0.5433798818325596
-0.5                      0                        1.2173913043478262       -0.6576175274802757      2.0349614338534546E-5    0.495065212342443
-0.47686319097347374      -0.1503379429638315      1.3043478260869563       -0.6278131619282147      -0.197891629447615       0.5272004147951296
-0.4941833013095586       -0.07604514913382686     1.2608695652173911       -0.6502723033292575      -0.1000786762116632      0.5110928231448396
-0.4941833013095587       -0.07604514913382694     1.3478260869565217       -0.6509807378357236      -0.10012286540456312     0.5434818142837577
-0.4513235955229022       -0.21519064134919935     1.4350553285038192       -0.5951504490307687      -0.28371470377232844     0.5766550138089052
-0.4178499308988591       -0.2745932177746177      1.4828803950565137       -0.5513170584425717      -0.3622842034703387      0.595590696453196
-0.2760384722614508       -0.4168965840967809      1.2974611064106572       -0.3634206543257368      -0.5487388739289982      0.5246398618542002
-0.1502834390814913       -0.47688037067784583     1.2173913043478262       -0.1977318706023342      -0.6271443033512107      0.495067520245557
-0.4775477803972802       -0.14814897042379685     1.389257696523675        -0.6293459141252072      -0.1952138628178586      0.5591461608886855
-0.5                      0                        1.3043478260869563       -0.6582484327067525      1.7650889482799182E-5    0.5272168376142612
-0.5                      0                        1.3913043478260867       -0.6589465881382769      2.293054818421087E-6     0.559942191536488
-0.21674176695346167      -0.45058074354980077     1.2619770599461686       -0.28525413467542476     -0.5928095375360191      0.511466752800069
-0.15033794296383157      -0.47686319097347385     1.304347826086956        -0.1979383340804983      -0.6277157542875544      0.5272240367489954
0                         -0.5                     1.1304347826086958       -1.1231535373910669E-4   -0.6570913879098396      0.46327140813929374
-0.07604514913382708      -0.4941833013095586      1.173913043478261        -0.10008740800534667     -0.6496386869930234      0.47912375904051635
-0.07604514913382683      -0.4941833013095586      1.2608695652173911       -0.10013212991619676     -0.6501629611479823      0.5110717620651862
0                         -0.5                     1.2173913043478262       -1.2936920945077492E-4   -0.6575372632032939      0.49506673589632283
-0.2767299020135968       -0.41643794415440233     1.384181126336295        -0.3647571714423408      -0.548713767280364       0.5571805359783945
-0.3793309222707701       -0.32574230828863326     1.4563181966749377       -0.5003459668808586      -0.4295698188781074      0.5850870639500253
-0.3859596537976267       -0.31786026118471644     1.5395596837236765       -0.5091959969076895      -0.41930501721006236     0.6185923245920294
-0.3331973354558668       -0.3727995917984764      1.4205945994435576       -0.43933026269470615     -0.4914573269001861      0.5711670850869321
-0.2768149133060729       -0.41638144023401347     1.4737121857546585       -0.3652266024223936      -0.5491868583348474      0.5919164213996043
-0.33146235571936555      -0.3743430335146745      1.5122758827224718       -0.43734386311382173     -0.493802338086695       0.6074163743684107